
     Program BANDS v.6.3MaX starts on 23Jun2019 at  6:44:26 

     This program is part of the open-source Quantum ESPRESSO suite
     for quantum simulation of materials; please cite
         "P. Giannozzi et al., J. Phys.:Condens. Matter 21 395502 (2009);
         "P. Giannozzi et al., J. Phys.:Condens. Matter 29 465901 (2017);
          URL http://www.quantum-espresso.org", 
     in publications or presentations arising from this work. More details at
     http://www.quantum-espresso.org/quote

     Serial version

     Reading data from directory:
     ./SrSnO3/pwscf.save/

     IMPORTANT: XC functional enforced from input :
     Exchange-correlation      = PBE ( 1  4  3  4 0 0)
     Any further DFT definition will be discarded
     Please, verify this is what you really want

               file Sn.pbe-dn-rrkjus_psl.1.0.0.UPF: wavefunction(s)  5S 4D renormalized

     G-vector sticks info
     --------------------
     sticks:   dense  smooth     PW     G-vecs:    dense   smooth      PW
     Sum        1153    1153    349                29423    29423    4801


     Check: negative/imaginary core charge=   -0.000010    0.000000
     high-symmetry point:  0.0000 0.0000 0.0000   x coordinate   0.0000
     high-symmetry point:  0.0000 0.5000 0.0000   x coordinate   0.5000
     high-symmetry point:  0.5000 0.5000 0.0000   x coordinate   1.0000
     high-symmetry point:  0.0000 0.0000 0.0000   x coordinate   1.7071
     high-symmetry point:  0.5000 0.5000 0.5000   x coordinate   2.5731
     high-symmetry point:  0.0000 0.5000 0.0000   x coordinate   3.2802
     high-symmetry point:  0.5000 0.5000 0.0000   x coordinate   3.2802
     high-symmetry point:  0.5000 0.5000 0.5000   x coordinate   3.7802

     Plottable bands (eV) written to file SrSnO3.bands.dat.gnu
     Bands written to file SrSnO3.bands.dat

 **************************************************************************

                    xk=(   0.00000,   0.00000,   0.00000  )

     point group O_h (m-3m) 
     there are 10 classes
     the character table:

       E     8C3   3C2   6C4   6C2'  i     8S6   3s_h  6S4   6s_d 
A_1g   1.00  1.00  1.00  1.00  1.00  1.00  1.00  1.00  1.00  1.00
A_2g   1.00  1.00  1.00 -1.00 -1.00  1.00  1.00  1.00 -1.00 -1.00
E_g    2.00 -1.00  2.00  0.00  0.00  2.00 -1.00  2.00  0.00  0.00
T_1g   3.00  0.00 -1.00  1.00 -1.00  3.00  0.00 -1.00  1.00 -1.00
T_2g   3.00  0.00 -1.00 -1.00  1.00  3.00  0.00 -1.00 -1.00  1.00
A_1u   1.00  1.00  1.00  1.00  1.00 -1.00 -1.00 -1.00 -1.00 -1.00
A_2u   1.00  1.00  1.00 -1.00 -1.00 -1.00 -1.00 -1.00  1.00  1.00
E_u    2.00 -1.00  2.00  0.00  0.00 -2.00  1.00 -2.00  0.00  0.00
T_1u   3.00  0.00 -1.00  1.00 -1.00 -3.00  0.00  1.00 -1.00  1.00
T_2u   3.00  0.00 -1.00 -1.00  1.00 -3.00  0.00  1.00  1.00 -1.00

     the symmetry operations in each class and the name of the first element:

     E        1
                                                                 
     8C3     17   19   20   18   24   21   22   23
                                                                 
     3C2      2    4    3
                                                                 
     6C4      7    8   15   16   12   11
                                                                 
     6C2'     5    6   14   13   10    9
                                                                 
     i       25
                                                                 
     8S6     41   43   44   42   48   45   46   47
                                                                 
     3s_h    26   28   27
                                                                 
     6S4     31   32   39   40   36   35
                                                                 
     6s_d    29   30   38   37   34   33
                                                                 

     Band symmetry, O_h (m-3m)  point group:

     e(  1 -  1) =    -24.04963  eV     1   --> A_1g G_1   G_1+
     e(  2 -  3) =    -11.59051  eV     2   --> E_g  G_12  G_3+
     e(  4 -  6) =    -10.77790  eV     3   --> T_2g G_25' G_5+
     e(  7 -  7) =     -8.78888  eV     1   --> A_1g G_1   G_1+
     e(  8 - 10) =     -6.01361  eV     3   --> T_1u G_15  G_4-
     e( 11 - 12) =     -5.69911  eV     2   --> E_g  G_12  G_3+
     e( 13 - 15) =      4.29571  eV     3   --> T_1u G_15  G_4-
     e( 16 - 18) =      8.13257  eV     3   --> T_2u G_25  G_5-
     e( 19 - 21) =      8.34887  eV     3   --> T_1u G_15  G_4-
     e( 22 - 22) =     10.04445  eV     1   --> A_1g G_1   G_1+
     e( 23 - 24) =     14.34631  eV     2   --> E_g  G_12  G_3+
     e( 25 - 25) =     14.88924  eV     1   --> A_1g G_1   G_1+
     e( 26 - 28) =     16.24630  eV     3   --> T_2g G_25' G_5+
     e( 29 - 31) =     21.99282  eV     3   --> T_1u G_15  G_4-
     e( 32 - 32) =     24.97888  eV     1   -->   ?

 **************************************************************************

 **************************************************************************

                    xk=(   0.00000,   0.02500,   0.00000  )

     point group C_4v (4mm) 
     there are  5 classes
     the character table:

       E     2C4   C2    2s_v  2s_d 
A_1    1.00  1.00  1.00  1.00  1.00
A_2    1.00  1.00  1.00 -1.00 -1.00
B_1    1.00 -1.00  1.00  1.00 -1.00
B_2    1.00 -1.00  1.00 -1.00  1.00
E      2.00  0.00 -2.00  0.00  0.00

     the symmetry operations in each class and the name of the first element:

     E        1
                                                                 
     2C4      3    4
                                                                 
     C2       2
                                                                 
     2s_v     5    6
                                                                 
     2s_d     7    8
                                                                 

     Band symmetry, C_4v (4mm)  point group:

     e(  1 -  1) =    -24.04957  eV     1   --> A_1  G_1 D_1   
     e(  2 -  2) =    -11.59048  eV     1   -->   ?
     e(  3 -  3) =    -11.58875  eV     1   -->   ?
     e(  4 -  5) =    -10.77802  eV     2   -->   ?
     e(  6 -  6) =    -10.77790  eV     1   -->   ?
     e(  7 -  7) =     -8.78774  eV     1   --> A_1  G_1 D_1   
     e(  8 -  8) =     -6.01975  eV     1   --> A_1  G_1 D_1   
     e(  9 - 10) =     -6.01336  eV     2   --> E    G_5 D_5   
     e( 11 - 11) =     -5.69950  eV     1   -->   ?
     e( 12 - 12) =     -5.69900  eV     1   -->   ?
     e( 13 - 13) =      4.29643  eV     1   -->   ?
     e( 14 - 15) =      4.29661  eV     2   -->   ?
     e( 16 - 16) =      8.12809  eV     1   -->   ?
     e( 17 - 18) =      8.13044  eV     2   -->   ?
     e( 19 - 19) =      8.32608  eV     1   -->   ?
     e( 20 - 21) =      8.34730  eV     2   -->   ?
     e( 22 - 22) =     10.07665  eV     1   --> A_1  G_1 D_1   
     e( 23 - 23) =     14.35483  eV     1   --> A_1  G_1 D_1   
     e( 24 - 24) =     14.35579  eV     1   --> B_1  G_3 D_2   
     e( 25 - 25) =     14.90130  eV     1   --> A_1  G_1 D_1   
     e( 26 - 26) =     16.24813  eV     1   -->   ?
     e( 27 - 28) =     16.25380  eV     2   -->   ?
     e( 29 - 29) =     21.98137  eV     1   -->   ?
     e( 30 - 31) =     21.99198  eV     2   -->   ?
     e( 32 - 32) =     24.94993  eV     1   -->   ?

 **************************************************************************

 **************************************************************************

                    xk=(   0.00000,   0.05000,   0.00000  )

     Band symmetry, C_4v (4mm)  point group:

     e(  1 -  1) =    -24.04937  eV     1   --> A_1  G_1 D_1   
     e(  2 -  2) =    -11.59042  eV     1   --> B_1  G_3 D_2   
     e(  3 -  3) =    -11.58326  eV     1   --> A_1  G_1 D_1   
     e(  4 -  5) =    -10.77832  eV     2   -->   ?
     e(  6 -  6) =    -10.77789  eV     1   -->   ?
     e(  7 -  7) =     -8.78426  eV     1   --> A_1  G_1 D_1   
     e(  8 -  8) =     -6.03829  eV     1   --> A_1  G_1 D_1   
     e(  9 - 10) =     -6.01264  eV     2   --> E    G_5 D_5   
     e( 11 - 11) =     -5.70046  eV     1   -->   ?
     e( 12 - 12) =     -5.69859  eV     1   -->   ?
     e( 13 - 13) =      4.29858  eV     1   -->   ?
     e( 14 - 15) =      4.29931  eV     2   -->   ?
     e( 16 - 16) =      8.11488  eV     1   -->   ?
     e( 17 - 18) =      8.12410  eV     2   -->   ?
     e( 19 - 19) =      8.26224  eV     1   --> A_1  G_1 D_1   
     e( 20 - 21) =      8.34275  eV     2   --> E    G_5 D_5   
     e( 22 - 22) =     10.16866  eV     1   --> A_1  G_1 D_1   
     e( 23 - 23) =     14.38020  eV     1   -->   ?
     e( 24 - 24) =     14.38400  eV     1   -->   ?
     e( 25 - 25) =     14.93742  eV     1   --> A_1  G_1 D_1   
     e( 26 - 26) =     16.25361  eV     1   -->   ?
     e( 27 - 28) =     16.27614  eV     2   -->   ?
     e( 29 - 29) =     21.94696  eV     1   -->   ?
     e( 30 - 31) =     21.98967  eV     2   -->   ?
     e( 32 - 32) =     24.86721  eV     1   -->   ?

 **************************************************************************

 **************************************************************************

                    xk=(   0.00000,   0.07500,   0.00000  )

     Band symmetry, C_4v (4mm)  point group:

     e(  1 -  1) =    -24.04906  eV     1   --> A_1  G_1 D_1   
     e(  2 -  2) =    -11.59034  eV     1   --> B_1  G_3 D_2   
     e(  3 -  3) =    -11.57469  eV     1   --> A_1  G_1 D_1   
     e(  4 -  5) =    -10.77902  eV     2   -->   0 A_1  G_1 D_1   
     e(  6 -  6) =    -10.77788  eV     1   -->   0 A_1  G_1 D_1   
     e(  7 -  7) =     -8.77835  eV     1   --> A_1  G_1 D_1   
     e(  8 -  8) =     -6.06948  eV     1   --> A_1  G_1 D_1   
     e(  9 - 10) =     -6.01144  eV     2   --> E    G_5 D_5   
     e( 11 - 11) =     -5.70154  eV     1   -->   ?
     e( 12 - 12) =     -5.69795  eV     1   -->   ?
     e( 13 - 13) =      4.30223  eV     1   --> A_1  G_1 D_1   
     e( 14 - 15) =      4.30372  eV     2   --> E    G_5 D_5   
     e( 16 - 16) =      8.09326  eV     1   -->   ?
     e( 17 - 18) =      8.11391  eV     2   -->   ?
     e( 19 - 19) =      8.16764  eV     1   -->   ?
     e( 20 - 21) =      8.33516  eV     2   --> E    G_5 D_5   
     e( 22 - 22) =     10.30983  eV     1   --> A_1  G_1 D_1   
     e( 23 - 23) =     14.42179  eV     1   -->   ?
     e( 24 - 24) =     14.43020  eV     1   -->   ?
     e( 25 - 25) =     14.99743  eV     1   --> A_1  G_1 D_1   
     e( 29 - 29) =     21.88990  eV     1   --> A_1  G_1 D_1   
     e( 30 - 31) =     21.98599  eV     2   --> E    G_5 D_5   

 **************************************************************************

 **************************************************************************

                    xk=(   0.00000,   0.10000,   0.00000  )

     Band symmetry, C_4v (4mm)  point group:

     e(  1 -  1) =    -24.04862  eV     1   --> A_1  G_1 D_1   
     e(  2 -  2) =    -11.59019  eV     1   --> B_1  G_3 D_2   
     e(  3 -  3) =    -11.56286  eV     1   --> A_1  G_1 D_1   
     e(  7 -  7) =     -8.76982  eV     1   --> A_1  G_1 D_1   
     e(  8 -  8) =     -6.11340  eV     1   --> A_1  G_1 D_1   
     e(  9 - 10) =     -6.00981  eV     2   --> E    G_5 D_5   
     e( 11 - 11) =     -5.70202  eV     1   --> A_1  G_1 D_1   
     e( 12 - 12) =     -5.69706  eV     1   --> B_1  G_3 D_2   
     e( 13 - 13) =      4.30752  eV     1   -->   ?
     e( 14 - 15) =      4.30975  eV     2   -->   ?
     e( 16 - 16) =      8.05333  eV     1   --> A_1  G_1 D_1   
     e( 18 - 19) =      8.10024  eV     2   -->   0 A_1  G_1 D_1   
     e( 20 - 21) =      8.32467  eV     2   --> E    G_5 D_5   
     e( 22 - 22) =     10.48896  eV     1   --> A_1  G_1 D_1   
     e( 23 - 23) =     14.47867  eV     1   --> A_1  G_1 D_1   
     e( 24 - 24) =     14.49321  eV     1   --> B_1  G_3 D_2   
     e( 25 - 25) =     15.08101  eV     1   --> A_1  G_1 D_1   
     e( 26 - 26) =     16.27494  eV     1   --> B_2  G_4 D_2'  
     e( 27 - 28) =     16.36311  eV     2   --> E    G_5 D_5   
     e( 29 - 29) =     21.81061  eV     1   --> A_1  G_1 D_1   
     e( 30 - 31) =     21.98132  eV     2   --> E    G_5 D_5   
     e( 32 - 32) =     24.58392  eV     1   --> B_2  G_4 D_2'  

 **************************************************************************

 **************************************************************************

                    xk=(   0.00000,   0.12500,   0.00000  )

     Band symmetry, C_4v (4mm)  point group:

     e(  1 -  1) =    -24.04809  eV     1   --> A_1  G_1 D_1   
     e(  2 -  2) =    -11.59009  eV     1   --> B_1  G_3 D_2   
     e(  3 -  3) =    -11.54811  eV     1   --> A_1  G_1 D_1   
     e(  4 -  5) =    -10.78082  eV     2   --> E    G_5 D_5   
     e(  6 -  6) =    -10.77785  eV     1   --> B_2  G_4 D_2'  
     e(  7 -  7) =     -8.75840  eV     1   --> A_1  G_1 D_1   
     e(  8 -  8) =     -6.16981  eV     1   --> A_1  G_1 D_1   
     e(  9 - 10) =     -6.00779  eV     2   --> E    G_5 D_5   
     e( 11 - 11) =     -5.70143  eV     1   --> A_1  G_1 D_1   
     e( 12 - 12) =     -5.69599  eV     1   --> B_1  G_3 D_2   
     e( 13 - 13) =      4.31456  eV     1   --> A_1  G_1 D_1   
     e( 14 - 15) =      4.31724  eV     2   --> E    G_5 D_5   
     e( 16 - 16) =      7.92771  eV     1   --> A_1  G_1 D_1   
     e( 17 - 17) =      8.02865  eV     1   --> B_1  G_3 D_2   
     e( 18 - 19) =      8.08364  eV     2   --> E    G_5 D_5   
     e( 20 - 21) =      8.31144  eV     2   --> E    G_5 D_5   
     e( 22 - 22) =     10.69711  eV     1   --> A_1  G_1 D_1   
     e( 23 - 23) =     14.54958  eV     1   --> A_1  G_1 D_1   
     e( 24 - 24) =     14.57144  eV     1   --> B_1  G_3 D_2   
     e( 25 - 25) =     15.18772  eV     1   --> A_1  G_1 D_1   
     e( 26 - 26) =     16.29047  eV     1   --> B_2  G_4 D_2'  
     e( 27 - 28) =     16.42579  eV     2   --> E    G_5 D_5   
     e( 29 - 29) =     21.70968  eV     1   --> A_1  G_1 D_1   
     e( 30 - 31) =     21.97610  eV     2   --> E    G_5 D_5   
     e( 32 - 32) =     24.40697  eV     1   --> B_2  G_4 D_2'  

 **************************************************************************

 **************************************************************************

                    xk=(   0.00000,   0.15000,   0.00000  )

     Band symmetry, C_4v (4mm)  point group:

     e(  1 -  1) =    -24.04745  eV     1   --> A_1  G_1 D_1   
     e(  2 -  2) =    -11.58969  eV     1   --> B_1  G_3 D_2   
     e(  3 -  3) =    -11.53071  eV     1   --> A_1  G_1 D_1   
     e(  4 -  5) =    -10.78177  eV     2   --> E    G_5 D_5   
     e(  6 -  6) =    -10.77774  eV     1   --> B_2  G_4 D_2'  
     e(  7 -  7) =     -8.74379  eV     1   --> A_1  G_1 D_1   
     e(  8 -  8) =     -6.23794  eV     1   --> A_1  G_1 D_1   
     e(  9 - 10) =     -6.00540  eV     2   --> E    G_5 D_5   
     e( 11 - 11) =     -5.69977  eV     1   --> A_1  G_1 D_1   
     e( 12 - 12) =     -5.69466  eV     1   --> B_1  G_3 D_2   
     e( 13 - 13) =      4.32345  eV     1   --> A_1  G_1 D_1   
     e( 14 - 15) =      4.32602  eV     2   --> E    G_5 D_5   
     e( 16 - 16) =      7.79670  eV     1   --> A_1  G_1 D_1   
     e( 17 - 17) =      7.98792  eV     1   --> B_1  G_3 D_2   
     e( 18 - 19) =      8.06482  eV     2   --> E    G_5 D_5   
     e( 20 - 21) =      8.29570  eV     2   --> E    G_5 D_5   
     e( 22 - 22) =     10.92780  eV     1   --> A_1  G_1 D_1   
     e( 23 - 23) =     14.63296  eV     1   --> A_1  G_1 D_1   
     e( 24 - 24) =     14.66299  eV     1   --> B_1  G_3 D_2   
     e( 25 - 25) =     15.31694  eV     1   --> A_1  G_1 D_1   
     e( 26 - 26) =     16.30888  eV     1   --> B_2  G_4 D_2'  
     e( 27 - 28) =     16.49955  eV     2   --> E    G_5 D_5   
     e( 29 - 29) =     21.58781  eV     1   --> A_1  G_1 D_1   
     e( 30 - 31) =     21.97096  eV     2   --> E    G_5 D_5   
     e( 32 - 32) =     24.21924  eV     1   --> B_2  G_4 D_2'  

 **************************************************************************

 **************************************************************************

                    xk=(   0.00000,   0.17500,   0.00000  )

     Band symmetry, C_4v (4mm)  point group:

     e(  1 -  1) =    -24.04675  eV     1   --> A_1  G_1 D_1   
     e(  2 -  2) =    -11.58947  eV     1   --> B_1  G_3 D_2   
     e(  3 -  3) =    -11.51109  eV     1   --> A_1  G_1 D_1   
     e(  4 -  5) =    -10.78318  eV     2   --> E    G_5 D_5   
     e(  6 -  6) =    -10.77774  eV     1   --> B_2  G_4 D_2'  
     e(  7 -  7) =     -8.72566  eV     1   --> A_1  G_1 D_1   
     e(  8 -  8) =     -6.31676  eV     1   --> A_1  G_1 D_1   
     e(  9 - 10) =     -6.00274  eV     2   --> E    G_5 D_5   
     e( 11 - 11) =     -5.69702  eV     1   --> A_1  G_1 D_1   
     e( 12 - 12) =     -5.69324  eV     1   --> B_1  G_3 D_2   
     e( 13 - 13) =      4.33425  eV     1   --> A_1  G_1 D_1   
     e( 16 - 16) =      7.66424  eV     1   --> A_1  G_1 D_1   
     e( 17 - 17) =      7.94309  eV     1   --> B_1  G_3 D_2   
     e( 18 - 19) =      8.04447  eV     2   --> E    G_5 D_5   
     e( 20 - 21) =      8.27754  eV     2   --> E    G_5 D_5   
     e( 22 - 22) =     11.17620  eV     1   --> A_1  G_1 D_1   
     e( 23 - 23) =     14.72701  eV     1   --> A_1  G_1 D_1   
     e( 24 - 24) =     14.76563  eV     1   --> B_1  G_3 D_2   
     e( 25 - 25) =     15.46793  eV     1   --> A_1  G_1 D_1   
     e( 26 - 26) =     16.32982  eV     1   --> B_2  G_4 D_2'  
     e( 27 - 28) =     16.58272  eV     2   --> E    G_5 D_5   
     e( 29 - 29) =     21.44600  eV     1   --> A_1  G_1 D_1   
     e( 30 - 31) =     21.96658  eV     2   --> E    G_5 D_5   
     e( 32 - 32) =     24.02750  eV     1   --> B_2  G_4 D_2'  

 **************************************************************************

 **************************************************************************

                    xk=(   0.00000,   0.20000,   0.00000  )

     Band symmetry, C_4v (4mm)  point group:

     e(  1 -  1) =    -24.04598  eV     1   --> A_1  G_1 D_1   
     e(  2 -  2) =    -11.58911  eV     1   --> B_1  G_3 D_2   
     e(  3 -  3) =    -11.48975  eV     1   --> A_1  G_1 D_1   
     e(  4 -  5) =    -10.78431  eV     2   --> E    G_5 D_5   
     e(  6 -  6) =    -10.77761  eV     1   --> B_2  G_4 D_2'  
     e(  7 -  7) =     -8.70363  eV     1   --> A_1  G_1 D_1   
     e(  8 -  8) =     -6.40498  eV     1   --> A_1  G_1 D_1   
     e(  9 - 10) =     -5.99983  eV     2   --> E    G_5 D_5   
     e( 11 - 11) =     -5.69331  eV     1   --> A_1  G_1 D_1   
     e( 12 - 12) =     -5.69163  eV     1   --> B_1  G_3 D_2   
     e( 13 - 14) =      4.34649  eV     2   --> E    G_5 D_5   
     e( 15 - 15) =      4.34703  eV     1   --> A_1  G_1 D_1   
     e( 16 - 16) =      7.53305  eV     1   --> A_1  G_1 D_1   
     e( 17 - 17) =      7.89580  eV     1   --> B_1  G_3 D_2   
     e( 18 - 19) =      8.02340  eV     2   --> E    G_5 D_5   
     e( 20 - 21) =      8.25732  eV     2   --> E    G_5 D_5   
     e( 22 - 22) =     11.43853  eV     1   --> A_1  G_1 D_1   
     e( 23 - 23) =     14.82968  eV     1   --> A_1  G_1 D_1   
     e( 24 - 24) =     14.87698  eV     1   --> B_1  G_3 D_2   
     e( 25 - 25) =     15.63982  eV     1   --> A_1  G_1 D_1   
     e( 26 - 26) =     16.35289  eV     1   --> B_2  G_4 D_2'  
     e( 27 - 28) =     16.67348  eV     2   --> E    G_5 D_5   
     e( 29 - 29) =     21.28547  eV     1   --> A_1  G_1 D_1   
     e( 30 - 31) =     21.96386  eV     2   --> E    G_5 D_5   
     e( 32 - 32) =     23.83689  eV     1   --> B_2  G_4 D_2'  

 **************************************************************************

 **************************************************************************

                    xk=(   0.00000,   0.22500,   0.00000  )

     Band symmetry, C_4v (4mm)  point group:

     e(  1 -  1) =    -24.04517  eV     1   --> A_1  G_1 D_1   
     e(  2 -  2) =    -11.58882  eV     1   --> B_1  G_3 D_2   
     e(  3 -  3) =    -11.46728  eV     1   --> A_1  G_1 D_1   
     e(  4 -  5) =    -10.78563  eV     2   --> E    G_5 D_5   
     e(  6 -  6) =    -10.77754  eV     1   --> B_2  G_4 D_2'  
     e(  7 -  7) =     -8.67736  eV     1   --> A_1  G_1 D_1   
     e(  8 -  8) =     -6.50123  eV     1   --> A_1  G_1 D_1   
     e(  9 - 10) =     -5.99678  eV     2   --> E    G_5 D_5   
     e( 11 - 11) =     -5.68998  eV     1   --> B_1  G_3 D_2   
     e( 12 - 12) =     -5.68885  eV     1   --> A_1  G_1 D_1   
     e( 13 - 14) =      4.35765  eV     2   --> E    G_5 D_5   
     e( 15 - 15) =      4.36169  eV     1   --> A_1  G_1 D_1   
     e( 16 - 16) =      7.40520  eV     1   --> A_1  G_1 D_1   
     e( 17 - 17) =      7.84699  eV     1   --> B_1  G_3 D_2   
     e( 18 - 19) =      8.00239  eV     2   --> E    G_5 D_5   
     e( 20 - 21) =      8.23531  eV     2   --> E    G_5 D_5   
     e( 22 - 22) =     11.71136  eV     1   --> A_1  G_1 D_1   
     e( 23 - 23) =     14.93865  eV     1   --> A_1  G_1 D_1   
     e( 24 - 24) =     14.99445  eV     1   --> B_1  G_3 D_2   
     e( 25 - 25) =     15.83163  eV     1   --> A_1  G_1 D_1   
     e( 26 - 26) =     16.37761  eV     1   --> B_2  G_4 D_2'  
     e( 27 - 28) =     16.76977  eV     2   --> E    G_5 D_5   
     e( 29 - 29) =     21.10777  eV     1   --> A_1  G_1 D_1   
     e( 30 - 31) =     21.96359  eV     2   --> E    G_5 D_5   
     e( 32 - 32) =     23.65126  eV     1   --> B_2  G_4 D_2'  

 **************************************************************************

 **************************************************************************

                    xk=(   0.00000,   0.25000,   0.00000  )

     Band symmetry, C_4v (4mm)  point group:

     e(  1 -  1) =    -24.04434  eV     1   --> A_1  G_1 D_1   
     e(  2 -  2) =    -11.58846  eV     1   --> B_1  G_3 D_2   
     e(  3 -  3) =    -11.44419  eV     1   --> A_1  G_1 D_1   
     e(  4 -  5) =    -10.78690  eV     2   --> E    G_5 D_5   
     e(  6 -  6) =    -10.77730  eV     1   --> B_2  G_4 D_2'  
     e(  7 -  7) =     -8.64653  eV     1   --> A_1  G_1 D_1   
     e(  8 -  8) =     -6.60389  eV     1   --> A_1  G_1 D_1   
     e(  9 - 10) =     -5.99364  eV     2   --> E    G_5 D_5   
     e( 11 - 11) =     -5.68828  eV     1   --> B_1  G_3 D_2   
     e( 12 - 12) =     -5.68387  eV     1   --> A_1  G_1 D_1   
     e( 13 - 14) =      4.36910  eV     2   --> E    G_5 D_5   
     e( 15 - 15) =      4.37805  eV     1   --> A_1  G_1 D_1   
     e( 16 - 16) =      7.28222  eV     1   --> A_1  G_1 D_1   
     e( 17 - 17) =      7.79813  eV     1   --> B_1  G_3 D_2   
     e( 18 - 19) =      7.98218  eV     2   --> E    G_5 D_5   
     e( 20 - 21) =      8.21190  eV     2   --> E    G_5 D_5   
     e( 22 - 22) =     11.99143  eV     1   --> A_1  G_1 D_1   
     e( 23 - 23) =     15.05133  eV     1   --> A_1  G_1 D_1   
     e( 24 - 24) =     15.11533  eV     1   --> B_1  G_3 D_2   
     e( 25 - 25) =     16.04227  eV     1   --> A_1  G_1 D_1   
     e( 26 - 26) =     16.40344  eV     1   --> B_2  G_4 D_2'  
     e( 27 - 28) =     16.86938  eV     2   --> E    G_5 D_5   
     e( 29 - 29) =     20.91476  eV     1   --> A_1  G_1 D_1   
     e( 30 - 31) =     21.96685  eV     2   --> E    G_5 D_5   
     e( 32 - 32) =     23.47365  eV     1   --> B_2  G_4 D_2'  

 **************************************************************************

 **************************************************************************

                    xk=(   0.00000,   0.27500,   0.00000  )

     Band symmetry, C_4v (4mm)  point group:

     e(  1 -  1) =    -24.04352  eV     1   --> A_1  G_1 D_1   
     e(  2 -  2) =    -11.58818  eV     1   --> B_1  G_3 D_2   
     e(  3 -  3) =    -11.42110  eV     1   --> A_1  G_1 D_1   
     e(  4 -  5) =    -10.78846  eV     2   --> E    G_5 D_5   
     e(  6 -  6) =    -10.77726  eV     1   --> B_2  G_4 D_2'  
     e(  7 -  7) =     -8.61092  eV     1   --> A_1  G_1 D_1   
     e(  8 -  8) =     -6.71132  eV     1   --> A_1  G_1 D_1   
     e(  9 - 10) =     -5.99052  eV     2   --> E    G_5 D_5   
     e( 11 - 11) =     -5.68659  eV     1   --> B_1  G_3 D_2   
     e( 12 - 12) =     -5.67863  eV     1   --> A_1  G_1 D_1   
     e( 13 - 14) =      4.38049  eV     2   --> E    G_5 D_5   
     e( 15 - 15) =      4.39584  eV     1   --> A_1  G_1 D_1   
     e( 16 - 16) =      7.16546  eV     1   --> A_1  G_1 D_1   
     e( 17 - 17) =      7.75032  eV     1   --> B_1  G_3 D_2   
     e( 18 - 19) =      7.96338  eV     2   --> E    G_5 D_5   
     e( 20 - 21) =      8.18745  eV     2   --> E    G_5 D_5   
     e( 22 - 22) =     12.27522  eV     1   --> A_1  G_1 D_1   
     e( 23 - 23) =     15.16489  eV     1   --> A_1  G_1 D_1   
     e( 24 - 24) =     15.23681  eV     1   --> B_1  G_3 D_2   
     e( 25 - 25) =     16.27048  eV     1   --> A_1  G_1 D_1   
     e( 26 - 26) =     16.42977  eV     1   --> B_2  G_4 D_2'  
     e( 27 - 28) =     16.96998  eV     2   --> E    G_5 D_5   
     e( 29 - 29) =     20.70876  eV     1   --> A_1  G_1 D_1   
     e( 30 - 31) =     21.97457  eV     2   --> E    G_5 D_5   
     e( 32 - 32) =     23.30642  eV     1   --> B_2  G_4 D_2'  

 **************************************************************************

 **************************************************************************

                    xk=(   0.00000,   0.30000,   0.00000  )

     Band symmetry, C_4v (4mm)  point group:

     e(  1 -  1) =    -24.04271  eV     1   --> A_1  G_1 D_1   
     e(  2 -  2) =    -11.58789  eV     1   --> B_1  G_3 D_2   
     e(  3 -  3) =    -11.39864  eV     1   --> A_1  G_1 D_1   
     e(  4 -  5) =    -10.78992  eV     2   --> E    G_5 D_5   
     e(  6 -  6) =    -10.77743  eV     1   --> B_2  G_4 D_2'  
     e(  7 -  7) =     -8.57045  eV     1   --> A_1  G_1 D_1   
     e(  8 -  8) =     -6.82172  eV     1   --> A_1  G_1 D_1   
     e(  9 - 10) =     -5.98747  eV     2   --> E    G_5 D_5   
     e( 11 - 11) =     -5.68496  eV     1   --> B_1  G_3 D_2   
     e( 12 - 12) =     -5.67332  eV     1   --> A_1  G_1 D_1   
     e( 13 - 14) =      4.39155  eV     2   --> E    G_5 D_5   
     e( 15 - 15) =      4.41467  eV     1   --> A_1  G_1 D_1   
     e( 16 - 16) =      7.05623  eV     1   --> A_1  G_1 D_1   
     e( 17 - 17) =      7.70467  eV     1   --> B_1  G_3 D_2   
     e( 18 - 19) =      7.94662  eV     2   --> E    G_5 D_5   
     e( 20 - 21) =      8.16246  eV     2   --> E    G_5 D_5   
     e( 22 - 22) =     12.55882  eV     1   --> A_1  G_1 D_1   
     e( 23 - 23) =     15.27624  eV     1   --> A_1  G_1 D_1   
     e( 24 - 24) =     15.35604  eV     1   --> B_1  G_3 D_2   
     e( 25 - 25) =     16.45598  eV     1   -->   ?
     e( 26 - 26) =     16.51479  eV     1   -->   ?
     e( 27 - 28) =     17.06914  eV     2   --> E    G_5 D_5   
     e( 29 - 29) =     20.49255  eV     1   --> A_1  G_1 D_1   
     e( 30 - 31) =     21.98778  eV     2   --> E    G_5 D_5   
     e( 32 - 32) =     23.15160  eV     1   --> B_2  G_4 D_2'  

 **************************************************************************

 **************************************************************************

                    xk=(   0.00000,   0.32500,   0.00000  )

     Band symmetry, C_4v (4mm)  point group:

     e(  1 -  1) =    -24.04194  eV     1   --> A_1  G_1 D_1   
     e(  2 -  2) =    -11.58752  eV     1   --> B_1  G_3 D_2   
     e(  3 -  3) =    -11.37677  eV     1   --> A_1  G_1 D_1   
     e(  4 -  5) =    -10.79111  eV     2   --> E    G_5 D_5   
     e(  6 -  6) =    -10.77730  eV     1   --> B_2  G_4 D_2'  
     e(  7 -  7) =     -8.52523  eV     1   --> A_1  G_1 D_1   
     e(  8 -  8) =     -6.93318  eV     1   --> A_1  G_1 D_1   
     e(  9 - 10) =     -5.98456  eV     2   --> E    G_5 D_5   
     e( 11 - 11) =     -5.68337  eV     1   --> B_1  G_3 D_2   
     e( 12 - 12) =     -5.66811  eV     1   --> A_1  G_1 D_1   
     e( 13 - 14) =      4.40206  eV     2   --> E    G_5 D_5   
     e( 15 - 15) =      4.43407  eV     1   --> A_1  G_1 D_1   
     e( 16 - 16) =      6.95577  eV     1   --> A_1  G_1 D_1   
     e( 17 - 17) =      7.66224  eV     1   --> B_1  G_3 D_2   
     e( 18 - 19) =      7.93239  eV     2   --> E    G_5 D_5   
     e( 20 - 21) =      8.13747  eV     2   --> E    G_5 D_5   
     e( 22 - 22) =     12.83771  eV     1   --> A_1  G_1 D_1   
     e( 23 - 23) =     15.38215  eV     1   --> A_1  G_1 D_1   
     e( 24 - 24) =     15.47016  eV     1   --> B_1  G_3 D_2   
     e( 25 - 25) =     16.48138  eV     1   --> B_2  G_4 D_2'  
     e( 26 - 26) =     16.77354  eV     1   --> A_1  G_1 D_1   
     e( 27 - 28) =     17.16440  eV     2   --> E    G_5 D_5   
     e( 29 - 29) =     20.26949  eV     1   --> A_1  G_1 D_1   
     e( 30 - 31) =     22.00741  eV     2   --> E    G_5 D_5   
     e( 32 - 32) =     23.01144  eV     1   -->   ?

 **************************************************************************

 **************************************************************************

                    xk=(   0.00000,   0.35000,   0.00000  )

     Band symmetry, C_4v (4mm)  point group:

     e(  1 -  1) =    -24.04123  eV     1   --> A_1  G_1 D_1   
     e(  2 -  2) =    -11.58723  eV     1   --> B_1  G_3 D_2   
     e(  3 -  3) =    -11.35698  eV     1   --> A_1  G_1 D_1   
     e(  4 -  5) =    -10.79238  eV     2   --> E    G_5 D_5   
     e(  6 -  6) =    -10.77718  eV     1   --> B_2  G_4 D_2'  
     e(  7 -  7) =     -8.47582  eV     1   --> A_1  G_1 D_1   
     e(  8 -  8) =     -7.04362  eV     1   --> A_1  G_1 D_1   
     e(  9 - 10) =     -5.98187  eV     2   --> E    G_5 D_5   
     e( 11 - 11) =     -5.68189  eV     1   --> B_1  G_3 D_2   
     e( 12 - 12) =     -5.66326  eV     1   --> A_1  G_1 D_1   
     e( 13 - 14) =      4.41174  eV     2   --> E    G_5 D_5   
     e( 15 - 15) =      4.45331  eV     1   --> A_1  G_1 D_1   
     e( 16 - 16) =      6.86519  eV     1   --> A_1  G_1 D_1   
     e( 17 - 17) =      7.62366  eV     1   --> B_1  G_3 D_2   
     e( 18 - 19) =      7.92097  eV     2   --> E    G_5 D_5   
     e( 20 - 21) =      8.11298  eV     2   --> E    G_5 D_5   
     e( 22 - 22) =     13.10635  eV     1   --> A_1  G_1 D_1   
     e( 23 - 23) =     15.47927  eV     1   --> A_1  G_1 D_1   
     e( 24 - 24) =     15.57628  eV     1   --> B_1  G_3 D_2   
     e( 25 - 25) =     16.50528  eV     1   --> B_2  G_4 D_2'  
     e( 26 - 26) =     17.04443  eV     1   --> A_1  G_1 D_1   
     e( 27 - 28) =     17.25327  eV     2   --> E    G_5 D_5   
     e( 29 - 29) =     20.04315  eV     1   --> A_1  G_1 D_1   
     e( 30 - 31) =     22.03419  eV     2   --> E    G_5 D_5   
     e( 32 - 32) =     22.61323  eV     1   --> A_1  G_1 D_1   

 **************************************************************************

 **************************************************************************

                    xk=(   0.00000,   0.37500,   0.00000  )

     Band symmetry, C_4v (4mm)  point group:

     e(  1 -  1) =    -24.04061  eV     1   --> A_1  G_1 D_1   
     e(  2 -  2) =    -11.58721  eV     1   --> B_1  G_3 D_2   
     e(  3 -  3) =    -11.33931  eV     1   --> A_1  G_1 D_1   
     e(  4 -  5) =    -10.79360  eV     2   --> E    G_5 D_5   
     e(  6 -  6) =    -10.77742  eV     1   --> B_2  G_4 D_2'  
     e(  7 -  7) =     -8.42316  eV     1   --> A_1  G_1 D_1   
     e(  8 -  8) =     -7.15056  eV     1   --> A_1  G_1 D_1   
     e(  9 - 10) =     -5.97949  eV     2   --> E    G_5 D_5   
     e( 11 - 11) =     -5.68061  eV     1   --> B_1  G_3 D_2   
     e( 12 - 12) =     -5.65888  eV     1   --> A_1  G_1 D_1   
     e( 13 - 14) =      4.42027  eV     2   --> E    G_5 D_5   
     e( 15 - 15) =      4.47173  eV     1   --> A_1  G_1 D_1   
     e( 16 - 16) =      6.78574  eV     1   --> A_1  G_1 D_1   
     e( 17 - 17) =      7.58982  eV     1   --> B_1  G_3 D_2   
     e( 18 - 19) =      7.91244  eV     2   --> E    G_5 D_5   
     e( 20 - 21) =      8.08966  eV     2   --> E    G_5 D_5   
     e( 22 - 22) =     13.35825  eV     1   --> A_1  G_1 D_1   
     e( 23 - 23) =     15.56449  eV     1   --> A_1  G_1 D_1   
     e( 24 - 24) =     15.67169  eV     1   --> B_1  G_3 D_2   
     e( 25 - 25) =     16.52696  eV     1   --> B_2  G_4 D_2'  
     e( 26 - 26) =     17.32460  eV     1   --> A_1  G_1 D_1   
     e( 27 - 28) =     17.33334  eV     2   --> E    G_5 D_5   
     e( 29 - 29) =     19.81712  eV     1   --> A_1  G_1 D_1   
     e( 30 - 31) =     22.06850  eV     2   --> E    G_5 D_5   
     e( 32 - 32) =     22.23663  eV     1   --> A_1  G_1 D_1   

 **************************************************************************

 **************************************************************************

                    xk=(   0.00000,   0.40000,   0.00000  )

     Band symmetry, C_4v (4mm)  point group:

     e(  1 -  1) =    -24.04007  eV     1   --> A_1  G_1 D_1   
     e(  2 -  2) =    -11.58690  eV     1   --> B_1  G_3 D_2   
     e(  3 -  3) =    -11.32394  eV     1   --> A_1  G_1 D_1   
     e(  4 -  5) =    -10.79468  eV     2   --> E    G_5 D_5   
     e(  6 -  6) =    -10.77732  eV     1   --> B_2  G_4 D_2'  
     e(  7 -  7) =     -8.36910  eV     1   --> A_1  G_1 D_1   
     e(  8 -  8) =     -7.25086  eV     1   --> A_1  G_1 D_1   
     e(  9 - 10) =     -5.97744  eV     2   --> E    G_5 D_5   
     e( 11 - 11) =     -5.67947  eV     1   --> B_1  G_3 D_2   
     e( 12 - 12) =     -5.65510  eV     1   --> A_1  G_1 D_1   
     e( 13 - 14) =      4.42759  eV     2   --> E    G_5 D_5   
     e( 15 - 15) =      4.48846  eV     1   --> A_1  G_1 D_1   
     e( 16 - 16) =      6.71861  eV     1   --> A_1  G_1 D_1   
     e( 17 - 17) =      7.56133  eV     1   --> B_1  G_3 D_2   
     e( 18 - 19) =      7.90681  eV     2   --> E    G_5 D_5   
     e( 20 - 21) =      8.06839  eV     2   --> E    G_5 D_5   
     e( 22 - 22) =     13.58549  eV     1   --> A_1  G_1 D_1   
     e( 23 - 23) =     15.63517  eV     1   --> A_1  G_1 D_1   
     e( 24 - 24) =     15.75382  eV     1   --> B_1  G_3 D_2   
     e( 25 - 25) =     16.54579  eV     1   --> B_2  G_4 D_2'  
     e( 26 - 27) =     17.40238  eV     2   --> E    G_5 D_5   
     e( 28 - 28) =     17.61027  eV     1   --> A_1  G_1 D_1   
     e( 29 - 29) =     19.59423  eV     1   --> A_1  G_1 D_1   
     e( 30 - 30) =     21.89182  eV     1   --> A_1  G_1 D_1   
     e( 31 - 32) =     22.11014  eV     2   --> E    G_5 D_5   

 **************************************************************************

 **************************************************************************

                    xk=(   0.00000,   0.42500,   0.00000  )

     Band symmetry, C_4v (4mm)  point group:

     e(  1 -  1) =    -24.03964  eV     1   --> A_1  G_1 D_1   
     e(  2 -  2) =    -11.58673  eV     1   --> B_1  G_3 D_2   
     e(  3 -  3) =    -11.31176  eV     1   --> A_1  G_1 D_1   
     e(  4 -  5) =    -10.79537  eV     2   --> E    G_5 D_5   
     e(  6 -  6) =    -10.77729  eV     1   --> B_2  G_4 D_2'  
     e(  7 -  7) =     -8.31671  eV     1   --> A_1  G_1 D_1   
     e(  8 -  8) =     -7.34035  eV     1   --> A_1  G_1 D_1   
     e(  9 - 10) =     -5.97579  eV     2   --> E    G_5 D_5   
     e( 11 - 11) =     -5.67855  eV     1   --> B_1  G_3 D_2   
     e( 12 - 12) =     -5.65205  eV     1   --> A_1  G_1 D_1   
     e( 13 - 14) =      4.43348  eV     2   --> E    G_5 D_5   
     e( 15 - 15) =      4.50263  eV     1   --> A_1  G_1 D_1   
     e( 16 - 16) =      6.66490  eV     1   --> A_1  G_1 D_1   
     e( 17 - 17) =      7.53871  eV     1   --> B_1  G_3 D_2   
     e( 18 - 19) =      7.90375  eV     2   --> E    G_5 D_5   
     e( 20 - 21) =      8.04989  eV     2   --> E    G_5 D_5   
     e( 22 - 22) =     13.77873  eV     1   --> A_1  G_1 D_1   
     e( 23 - 23) =     15.68953  eV     1   --> A_1  G_1 D_1   
     e( 24 - 24) =     15.82036  eV     1   --> B_1  G_3 D_2   
     e( 25 - 25) =     16.56114  eV     1   --> B_2  G_4 D_2'  
     e( 26 - 27) =     17.45839  eV     2   --> E    G_5 D_5   
     e( 28 - 28) =     17.89653  eV     1   --> A_1  G_1 D_1   
     e( 29 - 29) =     19.37542  eV     1   --> A_1  G_1 D_1   
     e( 30 - 30) =     21.59169  eV     1   --> A_1  G_1 D_1   
     e( 31 - 32) =     22.15768  eV     2   --> E    G_5 D_5   

 **************************************************************************

 **************************************************************************

                    xk=(   0.00000,   0.45000,   0.00000  )

     Band symmetry, C_4v (4mm)  point group:

     e(  1 -  1) =    -24.03932  eV     1   --> A_1  G_1 D_1   
     e(  2 -  2) =    -11.58656  eV     1   --> B_1  G_3 D_2   
     e(  3 -  3) =    -11.30279  eV     1   --> A_1  G_1 D_1   
     e(  4 -  5) =    -10.79600  eV     2   --> E    G_5 D_5   
     e(  6 -  6) =    -10.77725  eV     1   --> B_2  G_4 D_2'  
     e(  7 -  7) =     -8.27087  eV     1   --> A_1  G_1 D_1   
     e(  8 -  8) =     -7.41330  eV     1   --> A_1  G_1 D_1   
     e(  9 - 10) =     -5.97459  eV     2   --> E    G_5 D_5   
     e( 11 - 11) =     -5.67789  eV     1   --> B_1  G_3 D_2   
     e( 12 - 12) =     -5.64980  eV     1   --> A_1  G_1 D_1   
     e( 13 - 14) =      4.43776  eV     2   --> E    G_5 D_5   
     e( 15 - 15) =      4.51345  eV     1   --> A_1  G_1 D_1   
     e( 16 - 16) =      6.62574  eV     1   --> A_1  G_1 D_1   
     e( 17 - 17) =      7.52222  eV     1   --> B_1  G_3 D_2   
     e( 18 - 19) =      7.90262  eV     2   --> E    G_5 D_5   
     e( 20 - 21) =      8.03533  eV     2   --> E    G_5 D_5   
     e( 22 - 22) =     13.92772  eV     1   --> A_1  G_1 D_1   
     e( 23 - 23) =     15.72715  eV     1   --> A_1  G_1 D_1   
     e( 24 - 24) =     15.86937  eV     1   --> B_1  G_3 D_2   
     e( 25 - 25) =     16.57250  eV     1   --> B_2  G_4 D_2'  
     e( 26 - 27) =     17.49967  eV     2   --> E    G_5 D_5   
     e( 28 - 28) =     18.17719  eV     1   --> A_1  G_1 D_1   
     e( 29 - 29) =     19.15830  eV     1   --> A_1  G_1 D_1   
     e( 30 - 30) =     21.35369  eV     1   --> A_1  G_1 D_1   
     e( 31 - 32) =     22.20712  eV     2   --> E    G_5 D_5   

 **************************************************************************

 **************************************************************************

                    xk=(   0.00000,   0.47500,   0.00000  )

     Band symmetry, C_4v (4mm)  point group:

     e(  1 -  1) =    -24.03912  eV     1   --> A_1  G_1 D_1   
     e(  2 -  2) =    -11.58647  eV     1   --> B_1  G_3 D_2   
     e(  3 -  3) =    -11.29749  eV     1   --> A_1  G_1 D_1   
     e(  4 -  5) =    -10.79616  eV     2   --> E    G_5 D_5   
     e(  6 -  6) =    -10.77710  eV     1   --> B_2  G_4 D_2'  
     e(  7 -  7) =     -8.23843  eV     1   --> A_1  G_1 D_1   
     e(  8 -  8) =     -7.46226  eV     1   --> A_1  G_1 D_1   
     e(  9 - 10) =     -5.97384  eV     2   --> E    G_5 D_5   
     e( 11 - 11) =     -5.67748  eV     1   --> B_1  G_3 D_2   
     e( 12 - 12) =     -5.64843  eV     1   --> A_1  G_1 D_1   
     e( 13 - 14) =      4.44037  eV     2   --> E    G_5 D_5   
     e( 15 - 15) =      4.52027  eV     1   --> A_1  G_1 D_1   
     e( 16 - 16) =      6.60194  eV     1   --> A_1  G_1 D_1   
     e( 17 - 17) =      7.51217  eV     1   --> B_1  G_3 D_2   
     e( 18 - 19) =      7.90252  eV     2   --> E    G_5 D_5   
     e( 20 - 21) =      8.02593  eV     2   --> E    G_5 D_5   
     e( 22 - 22) =     14.02236  eV     1   --> A_1  G_1 D_1   
     e( 23 - 23) =     15.74882  eV     1   --> A_1  G_1 D_1   
     e( 24 - 24) =     15.89938  eV     1   --> B_1  G_3 D_2   
     e( 25 - 25) =     16.57949  eV     1   --> B_2  G_4 D_2'  
     e( 26 - 27) =     17.52498  eV     2   --> E    G_5 D_5   
     e( 28 - 28) =     18.44518  eV     1   --> A_1  G_1 D_1   
     e( 29 - 29) =     18.93720  eV     1   --> A_1  G_1 D_1   
     e( 30 - 30) =     21.19843  eV     1   --> A_1  G_1 D_1   
     e( 31 - 32) =     22.24913  eV     2   --> E    G_5 D_5   

 **************************************************************************

 **************************************************************************

                    xk=(   0.00000,   0.50000,   0.00000  )

     point group D_4h(4/mmm)
     there are 10 classes
     the character table:

       E     2C4   C2    2C2'  2C2'' i     2S4   s_h   2s_v  2s_d 
A_1g   1.00  1.00  1.00  1.00  1.00  1.00  1.00  1.00  1.00  1.00
A_2g   1.00  1.00  1.00 -1.00 -1.00  1.00  1.00  1.00 -1.00 -1.00
B_1g   1.00 -1.00  1.00  1.00 -1.00  1.00 -1.00  1.00  1.00 -1.00
B_2g   1.00 -1.00  1.00 -1.00  1.00  1.00 -1.00  1.00 -1.00  1.00
E_g    2.00  0.00 -2.00  0.00  0.00  2.00  0.00 -2.00  0.00  0.00
A_1u   1.00  1.00  1.00  1.00  1.00 -1.00 -1.00 -1.00 -1.00 -1.00
A_2u   1.00  1.00  1.00 -1.00 -1.00 -1.00 -1.00 -1.00  1.00  1.00
B_1u   1.00 -1.00  1.00  1.00 -1.00 -1.00  1.00 -1.00 -1.00  1.00
B_2u   1.00 -1.00  1.00 -1.00  1.00 -1.00  1.00 -1.00  1.00 -1.00
E_u    2.00  0.00 -2.00  0.00  0.00 -2.00  0.00  2.00  0.00  0.00

     the symmetry operations in each class and the name of the first element:

     E        1
                                                                 
     2C4      7    8
                                                                 
     C2       3
                                                                 
     2C2'     2    4
                                                                 
     2C2''    5    6
                                                                 
     i        9
                                                                 
     2S4     15   16
                                                                 
     s_h     11
                                                                 
     2s_v    10   12
                                                                 
     2s_d    13   14
                                                                 

     Band symmetry, D_4h(4/mmm) point group:

     e(  1 -  1) =    -24.03905  eV     1   --> A_2u X_4' M_4' 
     e(  2 -  2) =    -11.58643  eV     1   --> B_1g X_2  M_2  
     e(  3 -  3) =    -11.29533  eV     1   --> A_1g X_1  M_1  
     e(  4 -  5) =    -10.79611  eV     2   --> E_g  X_5  M_5  
     e(  6 -  6) =    -10.77709  eV     1   --> B_2g X_3  M_3  
     e(  7 -  7) =     -8.22646  eV     1   --> A_1g X_1  M_1  
     e(  8 -  8) =     -7.47971  eV     1   --> A_2u X_4' M_4' 
     e(  9 - 10) =     -5.97359  eV     2   --> E_g  X_5  M_5  
     e( 11 - 11) =     -5.67734  eV     1   --> B_1g X_2  M_2  
     e( 12 - 12) =     -5.64795  eV     1   --> A_1g X_1  M_1  
     e( 13 - 14) =      4.44125  eV     2   --> E_u  X_5' M_5' 
     e( 15 - 15) =      4.52262  eV     1   --> A_1g X_1  M_1  
     e( 16 - 16) =      6.59405  eV     1   --> A_2u X_4' M_4' 
     e( 17 - 17) =      7.50883  eV     1   --> B_2u X_3' M_3' 
     e( 18 - 19) =      7.90262  eV     2   --> E_g  X_5  M_5  
     e( 20 - 21) =      8.02264  eV     2   --> E_u  X_5' M_5' 
     e( 22 - 22) =     14.05495  eV     1   --> A_1g X_1  M_1  
     e( 23 - 23) =     15.75584  eV     1   --> A_2u X_4' M_4' 
     e( 24 - 24) =     15.90949  eV     1   --> B_2u X_3' M_3' 
     e( 25 - 25) =     16.58185  eV     1   --> B_1u X_2' M_2' 
     e( 26 - 27) =     17.53351  eV     2   --> E_u  X_5' M_5' 
     e( 28 - 28) =     18.66552  eV     1   --> A_1g X_1  M_1  
     e( 29 - 29) =     18.73441  eV     1   --> A_2u X_4' M_4' 
     e( 30 - 30) =     21.14417  eV     1   --> A_2u X_4' M_4' 
     e( 31 - 32) =     22.26688  eV     2   --> E_u  X_5' M_5' 

 **************************************************************************

 **************************************************************************

                    xk=(   0.02500,   0.50000,   0.00000  )

     point group C_2v (mm2) 
     there are  4 classes
     the character table:

       E     C2    s_v   s_v' 
A_1    1.00  1.00  1.00  1.00
A_2    1.00  1.00 -1.00 -1.00
B_1    1.00 -1.00  1.00 -1.00
B_2    1.00 -1.00 -1.00  1.00

     the symmetry operations in each class and the name of the first element:

     E        1
                                                                 
     C2       2
                                                                 
     s_v      4
                                                                 
     s_v'     3
                                                                 

     Band symmetry, C_2v (mm2)  point group:

     e(  1 -  1) =    -24.03899  eV     1   --> B_2  D_4  S_4  
     e(  2 -  2) =    -11.58519  eV     1   --> A_1  D_1  S_1  
     e(  3 -  3) =    -11.29449  eV     1   --> A_1  D_1  S_1  
     e(  4 -  4) =    -10.79626  eV     1   -->   ?
     e(  5 -  5) =    -10.79610  eV     1   -->   ?
     e(  6 -  6) =    -10.77731  eV     1   --> B_1  D_3  S_3  
     e(  7 -  7) =     -8.22487  eV     1   --> A_1  D_1  S_1  
     e(  8 -  8) =     -7.48140  eV     1   --> B_2  D_4  S_4  
     e(  9 -  9) =     -5.97347  eV     1   -->   ?
     e( 10 - 10) =     -5.97229  eV     1   -->   ?
     e( 11 - 11) =     -5.68331  eV     1   --> A_1  D_1  S_1  
     e( 12 - 12) =     -5.64899  eV     1   --> A_1  D_1  S_1  
     e( 13 - 13) =      4.27022  eV     1   --> A_1  D_1  S_1  
     e( 14 - 14) =      4.44361  eV     1   --> B_1  D_3  S_3  
     e( 15 - 15) =      4.70050  eV     1   --> A_1  D_1  S_1  
     e( 16 - 16) =      6.59142  eV     1   --> B_2  D_4  S_4  
     e( 17 - 17) =      7.49587  eV     1   --> B_2  D_4  S_4  
     e( 18 - 18) =      7.90019  eV     1   -->   ?
     e( 19 - 19) =      7.92127  eV     1   -->   ?
     e( 20 - 20) =      8.02001  eV     1   --> B_1  D_3  S_3  
     e( 21 - 21) =      8.02351  eV     1   --> A_1  D_1  S_1  
     e( 22 - 22) =     14.06140  eV     1   --> A_1  D_1  S_1  
     e( 23 - 23) =     15.76360  eV     1   --> B_2  D_4  S_4  
     e( 24 - 24) =     15.91404  eV     1   --> B_2  D_4  S_4  
     e( 25 - 25) =     16.58791  eV     1   --> A_2  D_2  S_2  
     e( 26 - 26) =     17.52043  eV     1   -->   ?
     e( 27 - 27) =     17.53384  eV     1   -->   ?
     e( 28 - 28) =     18.67666  eV     1   -->   ?
     e( 29 - 29) =     18.73090  eV     1   -->   ?
     e( 30 - 30) =     21.10885  eV     1   --> B_2  D_4  S_4  
     e( 31 - 31) =     22.11673  eV     1   --> B_1  D_3  S_3  
     e( 32 - 32) =     22.24691  eV     1   --> A_1  D_1  S_1  

 **************************************************************************

 **************************************************************************

                    xk=(   0.05000,   0.50000,   0.00000  )

     Band symmetry, C_2v (mm2)  point group:

     e(  1 -  1) =    -24.03883  eV     1   --> B_2  D_4  S_4  
     e(  2 -  2) =    -11.58117  eV     1   --> A_1  D_1  S_1  
     e(  3 -  3) =    -11.29181  eV     1   --> A_1  D_1  S_1  
     e(  4 -  4) =    -10.79681  eV     1   --> B_2  D_4  S_4  
     e(  5 -  5) =    -10.79623  eV     1   --> A_2  D_2  S_2  
     e(  6 -  6) =    -10.77758  eV     1   --> B_1  D_3  S_3  
     e(  7 -  7) =     -8.22008  eV     1   --> A_1  D_1  S_1  
     e(  8 -  8) =     -7.48641  eV     1   --> B_2  D_4  S_4  
     e(  9 -  9) =     -5.97310  eV     1   --> A_2  D_2  S_2  
     e( 10 - 10) =     -5.96839  eV     1   --> B_2  D_4  S_4  
     e( 11 - 11) =     -5.70131  eV     1   --> A_1  D_1  S_1  
     e( 12 - 12) =     -5.65180  eV     1   --> A_1  D_1  S_1  
     e( 13 - 13) =      4.07244  eV     1   --> A_1  D_1  S_1  
     e( 14 - 14) =      4.45068  eV     1   --> B_1  D_3  S_3  
     e( 15 - 15) =      4.91869  eV     1   --> A_1  D_1  S_1  
     e( 16 - 16) =      6.58327  eV     1   --> B_2  D_4  S_4  
     e( 17 - 17) =      7.46394  eV     1   --> B_2  D_4  S_4  
     e( 18 - 18) =      7.89286  eV     1   --> A_2  D_2  S_2  
     e( 19 - 19) =      7.97069  eV     1   --> B_2  D_4  S_4  
     e( 20 - 20) =      8.01216  eV     1   -->   ?
     e( 21 - 21) =      8.02621  eV     1   -->   ?
     e( 22 - 22) =     14.08076  eV     1   --> A_1  D_1  S_1  
     e( 23 - 23) =     15.78652  eV     1   --> B_2  D_4  S_4  
     e( 24 - 24) =     15.92796  eV     1   --> B_2  D_4  S_4  
     e( 25 - 25) =     16.60597  eV     1   --> A_2  D_2  S_2  
     e( 26 - 26) =     17.48289  eV     1   --> A_1  D_1  S_1  
     e( 27 - 27) =     17.53492  eV     1   --> B_1  D_3  S_3  
     e( 28 - 28) =     18.70822  eV     1   -->   ?
     e( 29 - 29) =     18.72037  eV     1   -->   ?
     e( 30 - 30) =     21.01227  eV     1   --> B_2  D_4  S_4  
     e( 31 - 31) =     21.89413  eV     1   --> B_1  D_3  S_3  
     e( 32 - 32) =     22.18879  eV     1   --> A_1  D_1  S_1  

 **************************************************************************

 **************************************************************************

                    xk=(   0.07500,   0.50000,   0.00000  )

     Band symmetry, C_2v (mm2)  point group:

     e(  1 -  1) =    -24.03854  eV     1   --> B_2  D_4  S_4  
     e(  2 -  2) =    -11.57486  eV     1   --> A_1  D_1  S_1  
     e(  3 -  3) =    -11.28721  eV     1   --> A_1  D_1  S_1  
     e(  4 -  4) =    -10.79713  eV     1   --> B_2  D_4  S_4  
     e(  5 -  5) =    -10.79602  eV     1   --> A_2  D_2  S_2  
     e(  6 -  6) =    -10.77780  eV     1   --> B_1  D_3  S_3  
     e(  7 -  7) =     -8.21208  eV     1   --> A_1  D_1  S_1  
     e(  8 -  8) =     -7.49455  eV     1   --> B_2  D_4  S_4  
     e(  9 -  9) =     -5.97247  eV     1   --> A_2  D_2  S_2  
     e( 10 - 10) =     -5.96203  eV     1   --> B_2  D_4  S_4  
     e( 11 - 11) =     -5.73129  eV     1   --> A_1  D_1  S_1  
     e( 12 - 12) =     -5.65610  eV     1   --> A_1  D_1  S_1  
     e( 13 - 13) =      3.88264  eV     1   --> A_1  D_1  S_1  
     e( 14 - 14) =      4.46236  eV     1   --> B_1  D_3  S_3  
     e( 15 - 15) =      5.14186  eV     1   --> A_1  D_1  S_1  
     e( 16 - 16) =      6.56920  eV     1   --> B_2  D_4  S_4  
     e( 17 - 17) =      7.42537  eV     1   --> B_2  D_4  S_4  
     e( 18 - 18) =      7.88098  eV     1   --> A_2  D_2  S_2  
     e( 19 - 19) =      7.99915  eV     1   --> B_1  D_3  S_3  
     e( 20 - 20) =      8.03101  eV     1   -->   ?
     e( 21 - 21) =      8.03885  eV     1   -->   ?
     e( 22 - 22) =     14.11320  eV     1   --> A_1  D_1  S_1  
     e( 23 - 23) =     15.82343  eV     1   --> B_2  D_4  S_4  
     e( 24 - 24) =     15.95210  eV     1   --> B_2  D_4  S_4  
     e( 25 - 25) =     16.63560  eV     1   --> A_2  D_2  S_2  
     e( 26 - 26) =     17.42543  eV     1   --> A_1  D_1  S_1  
     e( 27 - 27) =     17.53667  eV     1   --> B_1  D_3  S_3  
     e( 28 - 28) =     18.70299  eV     1   --> B_2  D_4  S_4  
     e( 29 - 29) =     18.75548  eV     1   --> A_1  D_1  S_1  
     e( 30 - 30) =     20.87413  eV     1   --> B_2  D_4  S_4  
     e( 31 - 31) =     21.67319  eV     1   --> B_1  D_3  S_3  
     e( 32 - 32) =     22.09721  eV     1   --> A_1  D_1  S_1  

 **************************************************************************

 **************************************************************************

                    xk=(   0.10000,   0.50000,   0.00000  )

     Band symmetry, C_2v (mm2)  point group:

     e(  1 -  1) =    -24.03816  eV     1   --> B_2  D_4  S_4  
     e(  2 -  2) =    -11.56643  eV     1   --> A_1  D_1  S_1  
     e(  3 -  3) =    -11.28064  eV     1   --> A_1  D_1  S_1  
     e(  4 -  4) =    -10.79789  eV     1   --> B_2  D_4  S_4  
     e(  5 -  5) =    -10.79601  eV     1   --> A_2  D_2  S_2  
     e(  6 -  6) =    -10.77850  eV     1   --> B_1  D_3  S_3  
     e(  7 -  7) =     -8.20085  eV     1   --> A_1  D_1  S_1  
     e(  8 -  8) =     -7.50559  eV     1   --> B_2  D_4  S_4  
     e(  9 -  9) =     -5.97163  eV     1   --> A_2  D_2  S_2  
     e( 10 - 10) =     -5.95348  eV     1   --> B_2  D_4  S_4  
     e( 11 - 11) =     -5.77279  eV     1   --> A_1  D_1  S_1  
     e( 12 - 12) =     -5.66179  eV     1   --> A_1  D_1  S_1  
     e( 13 - 13) =      3.70254  eV     1   --> A_1  D_1  S_1  
     e( 14 - 14) =      4.47838  eV     1   --> B_1  D_3  S_3  
     e( 15 - 15) =      5.36707  eV     1   --> A_1  D_1  S_1  
     e( 16 - 16) =      6.54843  eV     1   --> B_2  D_4  S_4  
     e( 17 - 17) =      7.38891  eV     1   --> B_2  D_4  S_4  
     e( 18 - 18) =      7.86483  eV     1   --> A_2  D_2  S_2  
     e( 19 - 19) =      7.98135  eV     1   -->   ?
     e( 20 - 20) =      8.03772  eV     1   -->   ?
     e( 21 - 21) =      8.11724  eV     1   --> B_2  D_4  S_4  
     e( 22 - 22) =     14.15879  eV     1   --> A_1  D_1  S_1  
     e( 23 - 23) =     15.87161  eV     1   --> B_2  D_4  S_4  
     e( 24 - 24) =     15.98858  eV     1   --> B_2  D_4  S_4  
     e( 25 - 25) =     16.67611  eV     1   --> A_2  D_2  S_2  
     e( 26 - 26) =     17.35331  eV     1   --> A_1  D_1  S_1  
     e( 27 - 27) =     17.53905  eV     1   --> B_1  D_3  S_3  
     e( 28 - 28) =     18.67886  eV     1   --> B_2  D_4  S_4  
     e( 29 - 29) =     18.81257  eV     1   --> A_1  D_1  S_1  
     e( 30 - 30) =     20.71255  eV     1   --> B_2  D_4  S_4  
     e( 31 - 31) =     21.46119  eV     1   --> B_1  D_3  S_3  
     e( 32 - 32) =     21.97869  eV     1   --> A_1  D_1  S_1  

 **************************************************************************

 **************************************************************************

                    xk=(   0.12500,   0.50000,   0.00000  )

     Band symmetry, C_2v (mm2)  point group:

     e(  1 -  1) =    -24.03769  eV     1   --> B_2  D_4  S_4  
     e(  2 -  2) =    -11.55637  eV     1   --> A_1  D_1  S_1  
     e(  3 -  3) =    -11.27189  eV     1   --> A_1  D_1  S_1  
     e(  4 -  4) =    -10.79878  eV     1   --> B_2  D_4  S_4  
     e(  5 -  5) =    -10.79588  eV     1   --> A_2  D_2  S_2  
     e(  6 -  6) =    -10.77938  eV     1   --> B_1  D_3  S_3  
     e(  7 -  7) =     -8.18639  eV     1   --> A_1  D_1  S_1  
     e(  8 -  8) =     -7.51913  eV     1   --> B_2  D_4  S_4  
     e(  9 -  9) =     -5.97058  eV     1   --> A_2  D_2  S_2  
     e( 10 - 10) =     -5.94300  eV     1   --> B_2  D_4  S_4  
     e( 11 - 11) =     -5.82508  eV     1   --> A_1  D_1  S_1  
     e( 12 - 12) =     -5.66878  eV     1   --> A_1  D_1  S_1  
     e( 13 - 13) =      3.53306  eV     1   --> A_1  D_1  S_1  
     e( 14 - 14) =      4.49852  eV     1   --> B_1  D_3  S_3  
     e( 15 - 15) =      5.59218  eV     1   --> A_1  D_1  S_1  
     e( 16 - 16) =      6.52054  eV     1   --> B_2  D_4  S_4  
     e( 17 - 17) =      7.35949  eV     1   --> B_2  D_4  S_4  
     e( 18 - 18) =      7.84488  eV     1   --> A_2  D_2  S_2  
     e( 19 - 19) =      7.95897  eV     1   --> B_1  D_3  S_3  
     e( 20 - 20) =      8.04646  eV     1   --> A_1  D_1  S_1  
     e( 21 - 21) =      8.20103  eV     1   --> B_2  D_4  S_4  
     e( 22 - 22) =     14.21776  eV     1   --> A_1  D_1  S_1  
     e( 23 - 23) =     15.92614  eV     1   --> B_2  D_4  S_4  
     e( 24 - 24) =     16.04152  eV     1   --> B_2  D_4  S_4  
     e( 25 - 25) =     16.72656  eV     1   --> A_2  D_2  S_2  
     e( 26 - 26) =     17.27156  eV     1   --> A_1  D_1  S_1  
     e( 27 - 27) =     17.54204  eV     1   --> B_1  D_3  S_3  
     e( 28 - 28) =     18.64828  eV     1   --> B_2  D_4  S_4  
     e( 29 - 29) =     18.87355  eV     1   --> A_1  D_1  S_1  
     e( 30 - 30) =     20.54032  eV     1   --> B_2  D_4  S_4  
     e( 31 - 31) =     21.26009  eV     1   --> B_1  D_3  S_3  
     e( 32 - 32) =     21.84039  eV     1   --> A_1  D_1  S_1  

 **************************************************************************

 **************************************************************************

                    xk=(   0.15000,   0.50000,   0.00000  )

     Band symmetry, C_2v (mm2)  point group:

     e(  1 -  1) =    -24.03714  eV     1   --> B_2  D_4  S_4  
     e(  2 -  2) =    -11.54528  eV     1   --> A_1  D_1  S_1  
     e(  3 -  3) =    -11.26077  eV     1   --> A_1  D_1  S_1  
     e(  4 -  4) =    -10.79980  eV     1   --> B_2  D_4  S_4  
     e(  5 -  5) =    -10.79573  eV     1   --> A_2  D_2  S_2  
     e(  6 -  6) =    -10.78042  eV     1   --> B_1  D_3  S_3  
     e(  7 -  7) =     -8.16866  eV     1   --> A_1  D_1  S_1  
     e(  8 -  8) =     -7.53476  eV     1   --> B_2  D_4  S_4  
     e(  9 -  9) =     -5.96935  eV     1   --> A_2  D_2  S_2  
     e( 10 - 10) =     -5.93094  eV     1   --> B_2  D_4  S_4  
     e( 11 - 11) =     -5.88729  eV     1   --> A_1  D_1  S_1  
     e( 12 - 12) =     -5.67694  eV     1   --> A_1  D_1  S_1  
     e( 13 - 13) =      3.37476  eV     1   --> A_1  D_1  S_1  
     e( 14 - 14) =      4.52245  eV     1   --> B_1  D_3  S_3  
     e( 15 - 15) =      5.81480  eV     1   --> A_1  D_1  S_1  
     e( 16 - 16) =      6.48565  eV     1   --> B_2  D_4  S_4  
     e( 17 - 17) =      7.33945  eV     1   --> B_2  D_4  S_4  
     e( 18 - 18) =      7.82172  eV     1   --> A_2  D_2  S_2  
     e( 19 - 19) =      7.93240  eV     1   --> B_1  D_3  S_3  
     e( 20 - 20) =      8.05729  eV     1   --> A_1  D_1  S_1  
     e( 21 - 21) =      8.28724  eV     1   --> B_2  D_4  S_4  
     e( 22 - 22) =     14.29024  eV     1   --> A_1  D_1  S_1  
     e( 23 - 23) =     15.98159  eV     1   --> B_2  D_4  S_4  
     e( 24 - 24) =     16.11529  eV     1   --> B_2  D_4  S_4  
     e( 25 - 25) =     16.78579  eV     1   --> A_2  D_2  S_2  
     e( 26 - 26) =     17.18430  eV     1   --> A_1  D_1  S_1  
     e( 27 - 27) =     17.54557  eV     1   --> B_1  D_3  S_3  
     e( 28 - 28) =     18.61151  eV     1   --> B_2  D_4  S_4  
     e( 29 - 29) =     18.93271  eV     1   --> A_1  D_1  S_1  
     e( 30 - 30) =     20.36591  eV     1   --> B_2  D_4  S_4  
     e( 31 - 31) =     21.07074  eV     1   --> B_1  D_3  S_3  
     e( 32 - 32) =     21.68961  eV     1   --> A_1  D_1  S_1  

 **************************************************************************

 **************************************************************************

                    xk=(   0.17500,   0.50000,   0.00000  )

     Band symmetry, C_2v (mm2)  point group:

     e(  1 -  1) =    -24.03651  eV     1   --> B_2  D_4  S_4  
     e(  2 -  2) =    -11.53344  eV     1   --> A_1  D_1  S_1  
     e(  3 -  3) =    -11.24709  eV     1   --> A_1  D_1  S_1  
     e(  4 -  4) =    -10.80077  eV     1   --> B_2  D_4  S_4  
     e(  5 -  5) =    -10.79552  eV     1   --> A_2  D_2  S_2  
     e(  6 -  6) =    -10.78150  eV     1   --> B_1  D_3  S_3  
     e(  7 -  7) =     -8.14761  eV     1   --> A_1  D_1  S_1  
     e(  8 -  8) =     -7.55202  eV     1   --> B_2  D_4  S_4  
     e(  9 -  9) =     -5.96797  eV     1   --> A_2  D_2  S_2  
     e( 10 - 10) =     -5.95836  eV     1   --> A_1  D_1  S_1  
     e( 11 - 11) =     -5.91766  eV     1   --> B_2  D_4  S_4  
     e( 12 - 12) =     -5.68608  eV     1   --> A_1  D_1  S_1  
     e( 13 - 13) =      3.22800  eV     1   --> A_1  D_1  S_1  
     e( 14 - 14) =      4.54978  eV     1   --> B_1  D_3  S_3  
     e( 15 - 15) =      6.03251  eV     1   --> A_1  D_1  S_1  
     e( 16 - 16) =      6.44461  eV     1   --> B_2  D_4  S_4  
     e( 17 - 17) =      7.32925  eV     1   --> B_2  D_4  S_4  
     e( 18 - 18) =      7.79600  eV     1   --> A_2  D_2  S_2  
     e( 19 - 19) =      7.90213  eV     1   --> B_1  D_3  S_3  
     e( 20 - 20) =      8.07048  eV     1   --> A_1  D_1  S_1  
     e( 21 - 21) =      8.37400  eV     1   --> B_2  D_4  S_4  
     e( 22 - 22) =     14.37639  eV     1   --> A_1  D_1  S_1  
     e( 23 - 23) =     16.03629  eV     1   --> B_2  D_4  S_4  
     e( 24 - 24) =     16.21024  eV     1   --> B_2  D_4  S_4  
     e( 25 - 25) =     16.85242  eV     1   --> A_2  D_2  S_2  
     e( 26 - 26) =     17.09490  eV     1   --> A_1  D_1  S_1  
     e( 27 - 27) =     17.54958  eV     1   --> B_1  D_3  S_3  
     e( 28 - 28) =     18.56900  eV     1   --> B_2  D_4  S_4  
     e( 29 - 29) =     18.98420  eV     1   --> A_1  D_1  S_1  
     e( 30 - 30) =     20.19508  eV     1   --> B_2  D_4  S_4  
     e( 31 - 31) =     20.89364  eV     1   --> B_1  D_3  S_3  
     e( 32 - 32) =     21.53365  eV     1   --> A_1  D_1  S_1  

 **************************************************************************

 **************************************************************************

                    xk=(   0.20000,   0.50000,   0.00000  )

     Band symmetry, C_2v (mm2)  point group:

     e(  1 -  1) =    -24.03584  eV     1   --> B_2  D_4  S_4  
     e(  2 -  2) =    -11.52177  eV     1   --> A_1  D_1  S_1  
     e(  3 -  3) =    -11.23112  eV     1   --> A_1  D_1  S_1  
     e(  4 -  4) =    -10.80196  eV     1   --> B_2  D_4  S_4  
     e(  5 -  5) =    -10.79552  eV     1   --> A_2  D_2  S_2  
     e(  6 -  6) =    -10.78278  eV     1   --> B_1  D_3  S_3  
     e(  7 -  7) =     -8.12334  eV     1   --> A_1  D_1  S_1  
     e(  8 -  8) =     -7.57042  eV     1   --> B_2  D_4  S_4  
     e(  9 -  9) =     -6.03717  eV     1   --> A_1  D_1  S_1  
     e( 10 - 10) =     -5.96648  eV     1   --> A_2  D_2  S_2  
     e( 11 - 11) =     -5.90357  eV     1   --> B_2  D_4  S_4  
     e( 12 - 12) =     -5.69601  eV     1   --> A_1  D_1  S_1  
     e( 13 - 13) =      3.09295  eV     1   --> A_1  D_1  S_1  
     e( 14 - 14) =      4.57992  eV     1   --> B_1  D_3  S_3  
     e( 15 - 15) =      6.24268  eV     1   --> A_1  D_1  S_1  
     e( 16 - 16) =      6.39876  eV     1   --> B_2  D_4  S_4  
     e( 17 - 17) =      7.32812  eV     1   --> B_2  D_4  S_4  
     e( 18 - 18) =      7.76837  eV     1   --> A_2  D_2  S_2  
     e( 19 - 19) =      7.86868  eV     1   --> B_1  D_3  S_3  
     e( 20 - 20) =      8.08615  eV     1   --> A_1  D_1  S_1  
     e( 21 - 21) =      8.45974  eV     1   --> B_2  D_4  S_4  
     e( 22 - 22) =     14.47621  eV     1   --> A_1  D_1  S_1  
     e( 23 - 23) =     16.09159  eV     1   --> B_2  D_4  S_4  
     e( 24 - 24) =     16.32331  eV     1   --> B_2  D_4  S_4  
     e( 25 - 25) =     16.92489  eV     1   --> A_2  D_2  S_2  
     e( 26 - 26) =     17.00612  eV     1   --> A_1  D_1  S_1  
     e( 27 - 27) =     17.55396  eV     1   --> B_1  D_3  S_3  
     e( 28 - 28) =     18.52125  eV     1   --> B_2  D_4  S_4  
     e( 29 - 29) =     19.02162  eV     1   --> A_1  D_1  S_1  
     e( 30 - 30) =     20.03193  eV     1   --> B_2  D_4  S_4  
     e( 31 - 31) =     20.72911  eV     1   --> B_1  D_3  S_3  
     e( 32 - 32) =     21.38005  eV     1   --> A_1  D_1  S_1  

 **************************************************************************

 **************************************************************************

                    xk=(   0.22500,   0.50000,   0.00000  )

     Band symmetry, C_2v (mm2)  point group:

     e(  1 -  1) =    -24.03513  eV     1   --> B_2  D_4  S_4  
     e(  2 -  2) =    -11.51050  eV     1   --> A_1  D_1  S_1  
     e(  3 -  3) =    -11.21257  eV     1   --> A_1  D_1  S_1  
     e(  4 -  4) =    -10.80312  eV     1   --> B_2  D_4  S_4  
     e(  5 -  5) =    -10.79533  eV     1   --> A_2  D_2  S_2  
     e(  6 -  6) =    -10.78417  eV     1   --> B_1  D_3  S_3  
     e(  7 -  7) =     -8.09571  eV     1   --> A_1  D_1  S_1  
     e(  8 -  8) =     -7.58947  eV     1   --> B_2  D_4  S_4  
     e(  9 -  9) =     -6.12244  eV     1   --> A_1  D_1  S_1  
     e( 10 - 10) =     -5.96491  eV     1   --> A_2  D_2  S_2  
     e( 11 - 11) =     -5.88902  eV     1   --> B_2  D_4  S_4  
     e( 12 - 12) =     -5.70649  eV     1   --> A_1  D_1  S_1  
     e( 13 - 13) =      2.96969  eV     1   --> A_1  D_1  S_1  
     e( 14 - 14) =      4.61233  eV     1   --> B_1  D_3  S_3  
     e( 15 - 15) =      6.34993  eV     1   --> B_2  D_4  S_4  
     e( 16 - 16) =      6.44269  eV     1   --> A_1  D_1  S_1  
     e( 17 - 17) =      7.33468  eV     1   --> B_2  D_4  S_4  
     e( 18 - 18) =      7.73960  eV     1   --> A_2  D_2  S_2  
     e( 19 - 19) =      7.83278  eV     1   --> B_1  D_3  S_3  
     e( 20 - 20) =      8.10461  eV     1   --> A_1  D_1  S_1  
     e( 21 - 21) =      8.54332  eV     1   --> B_2  D_4  S_4  
     e( 22 - 22) =     14.58958  eV     1   --> A_1  D_1  S_1  
     e( 23 - 23) =     16.14865  eV     1   --> B_2  D_4  S_4  
     e( 24 - 24) =     16.45131  eV     1   --> B_2  D_4  S_4  
     e( 25 - 25) =     16.92044  eV     1   -->   ?
     e( 26 - 26) =     17.00149  eV     1   -->   ?
     e( 27 - 27) =     17.55865  eV     1   --> B_1  D_3  S_3  
     e( 28 - 28) =     18.46918  eV     1   --> B_2  D_4  S_4  
     e( 29 - 29) =     19.03775  eV     1   --> A_1  D_1  S_1  
     e( 30 - 30) =     19.87959  eV     1   --> B_2  D_4  S_4  
     e( 31 - 31) =     20.57739  eV     1   --> B_1  D_3  S_3  
     e( 32 - 32) =     21.23683  eV     1   --> A_1  D_1  S_1  

 **************************************************************************

 **************************************************************************

                    xk=(   0.25000,   0.50000,   0.00000  )

     Band symmetry, C_2v (mm2)  point group:

     e(  1 -  1) =    -24.03441  eV     1   --> B_2  D_4  S_4  
     e(  2 -  2) =    -11.50028  eV     1   --> A_1  D_1  S_1  
     e(  3 -  3) =    -11.19201  eV     1   --> A_1  D_1  S_1  
     e(  4 -  4) =    -10.80460  eV     1   --> B_2  D_4  S_4  
     e(  5 -  5) =    -10.79534  eV     1   --> A_2  D_2  S_2  
     e(  6 -  6) =    -10.78574  eV     1   --> B_1  D_3  S_3  
     e(  7 -  7) =     -8.06483  eV     1   --> A_1  D_1  S_1  
     e(  8 -  8) =     -7.60867  eV     1   --> B_2  D_4  S_4  
     e(  9 -  9) =     -6.21276  eV     1   --> A_1  D_1  S_1  
     e( 10 - 10) =     -5.96331  eV     1   --> A_2  D_2  S_2  
     e( 11 - 11) =     -5.87443  eV     1   --> B_2  D_4  S_4  
     e( 12 - 12) =     -5.71727  eV     1   --> A_1  D_1  S_1  
     e( 13 - 13) =      2.85814  eV     1   --> A_1  D_1  S_1  
     e( 14 - 14) =      4.64632  eV     1   --> B_1  D_3  S_3  
     e( 15 - 15) =      6.29987  eV     1   --> B_2  D_4  S_4  
     e( 16 - 16) =      6.62987  eV     1   --> A_1  D_1  S_1  
     e( 17 - 17) =      7.34722  eV     1   --> B_2  D_4  S_4  
     e( 18 - 18) =      7.71039  eV     1   --> A_2  D_2  S_2  
     e( 19 - 19) =      7.79514  eV     1   --> B_1  D_3  S_3  
     e( 20 - 20) =      8.12593  eV     1   --> A_1  D_1  S_1  
     e( 21 - 21) =      8.62362  eV     1   --> B_2  D_4  S_4  
     e( 22 - 22) =     14.71595  eV     1   --> A_1  D_1  S_1  
     e( 23 - 23) =     16.20765  eV     1   --> B_2  D_4  S_4  
     e( 24 - 24) =     16.59137  eV     1   --> B_2  D_4  S_4  
     e( 25 - 25) =     16.84009  eV     1   --> A_1  D_1  S_1  
     e( 26 - 26) =     17.08043  eV     1   --> A_2  D_2  S_2  
     e( 27 - 27) =     17.56350  eV     1   --> B_1  D_3  S_3  
     e( 28 - 28) =     18.41402  eV     1   --> B_2  D_4  S_4  
     e( 29 - 29) =     19.02497  eV     1   --> A_1  D_1  S_1  
     e( 30 - 30) =     19.74039  eV     1   --> B_2  D_4  S_4  
     e( 31 - 31) =     20.43863  eV     1   --> B_1  D_3  S_3  
     e( 32 - 32) =     21.11209  eV     1   --> A_1  D_1  S_1  

 **************************************************************************

 **************************************************************************

                    xk=(   0.27500,   0.50000,   0.00000  )

     Band symmetry, C_2v (mm2)  point group:

     e(  1 -  1) =    -24.03367  eV     1   --> B_2  D_4  S_4  
     e(  2 -  2) =    -11.49075  eV     1   --> A_1  D_1  S_1  
     e(  3 -  3) =    -11.16953  eV     1   --> A_1  D_1  S_1  
     e(  4 -  4) =    -10.80556  eV     1   --> B_2  D_4  S_4  
     e(  5 -  5) =    -10.79498  eV     1   --> A_2  D_2  S_2  
     e(  6 -  6) =    -10.78684  eV     1   --> B_1  D_3  S_3  
     e(  7 -  7) =     -8.03072  eV     1   --> A_1  D_1  S_1  
     e(  8 -  8) =     -7.62755  eV     1   --> B_2  D_4  S_4  
     e(  9 -  9) =     -6.30650  eV     1   --> A_1  D_1  S_1  
     e( 10 - 10) =     -5.96168  eV     1   --> A_2  D_2  S_2  
     e( 11 - 11) =     -5.86009  eV     1   --> B_2  D_4  S_4  
     e( 12 - 12) =     -5.72807  eV     1   --> A_1  D_1  S_1  
     e( 13 - 13) =      2.75829  eV     1   --> A_1  D_1  S_1  
     e( 14 - 14) =      4.68121  eV     1   --> B_1  D_3  S_3  
     e( 15 - 15) =      6.25038  eV     1   --> B_2  D_4  S_4  
     e( 16 - 16) =      6.80177  eV     1   --> A_1  D_1  S_1  
     e( 17 - 17) =      7.36406  eV     1   --> B_2  D_4  S_4  
     e( 18 - 18) =      7.68156  eV     1   --> A_2  D_2  S_2  
     e( 19 - 19) =      7.75670  eV     1   --> B_1  D_3  S_3  
     e( 20 - 20) =      8.15051  eV     1   --> A_1  D_1  S_1  
     e( 21 - 21) =      8.69978  eV     1   --> B_2  D_4  S_4  
     e( 22 - 22) =     14.85441  eV     1   --> A_1  D_1  S_1  
     e( 23 - 23) =     16.26823  eV     1   --> B_2  D_4  S_4  
     e( 24 - 24) =     16.74047  eV     1   --> B_2  D_4  S_4  
     e( 25 - 25) =     16.76750  eV     1   --> A_1  D_1  S_1  
     e( 26 - 26) =     17.15982  eV     1   --> A_2  D_2  S_2  
     e( 27 - 27) =     17.56847  eV     1   --> B_1  D_3  S_3  
     e( 28 - 28) =     18.35778  eV     1   --> B_2  D_4  S_4  
     e( 29 - 29) =     18.97649  eV     1   --> A_1  D_1  S_1  
     e( 30 - 30) =     19.61615  eV     1   --> B_2  D_4  S_4  
     e( 31 - 31) =     20.31298  eV     1   --> B_1  D_3  S_3  
     e( 32 - 32) =     21.01288  eV     1   --> A_1  D_1  S_1  

 **************************************************************************

 **************************************************************************

                    xk=(   0.30000,   0.50000,   0.00000  )

     Band symmetry, C_2v (mm2)  point group:

     e(  1 -  1) =    -24.03296  eV     1   --> B_2  D_4  S_4  
     e(  2 -  2) =    -11.48266  eV     1   --> A_1  D_1  S_1  
     e(  3 -  3) =    -11.14632  eV     1   --> A_1  D_1  S_1  
     e(  4 -  4) =    -10.80670  eV     1   --> B_2  D_4  S_4  
     e(  5 -  5) =    -10.79478  eV     1   --> A_2  D_2  S_2  
     e(  6 -  6) =    -10.78815  eV     1   --> B_1  D_3  S_3  
     e(  7 -  7) =     -7.99367  eV     1   --> A_1  D_1  S_1  
     e(  8 -  8) =     -7.64570  eV     1   --> B_2  D_4  S_4  
     e(  9 -  9) =     -6.40212  eV     1   --> A_1  D_1  S_1  
     e( 10 - 10) =     -5.96010  eV     1   --> A_2  D_2  S_2  
     e( 11 - 11) =     -5.84638  eV     1   --> B_2  D_4  S_4  
     e( 12 - 12) =     -5.73865  eV     1   --> A_1  D_1  S_1  
     e( 13 - 13) =      2.66981  eV     1   --> A_1  D_1  S_1  
     e( 14 - 14) =      4.71609  eV     1   --> B_1  D_3  S_3  
     e( 15 - 15) =      6.20273  eV     1   --> B_2  D_4  S_4  
     e( 16 - 16) =      6.95601  eV     1   --> A_1  D_1  S_1  
     e( 17 - 17) =      7.38353  eV     1   --> B_2  D_4  S_4  
     e( 18 - 18) =      7.65367  eV     1   --> A_2  D_2  S_2  
     e( 19 - 19) =      7.71823  eV     1   --> B_1  D_3  S_3  
     e( 20 - 20) =      8.17822  eV     1   --> A_1  D_1  S_1  
     e( 21 - 21) =      8.77076  eV     1   --> B_2  D_4  S_4  
     e( 22 - 22) =     15.00306  eV     1   --> A_1  D_1  S_1  
     e( 23 - 23) =     16.32953  eV     1   --> B_2  D_4  S_4  
     e( 24 - 24) =     16.70529  eV     1   --> A_1  D_1  S_1  
     e( 25 - 25) =     16.89462  eV     1   --> B_2  D_4  S_4  
     e( 26 - 26) =     17.23769  eV     1   --> A_2  D_2  S_2  
     e( 27 - 27) =     17.57338  eV     1   --> B_1  D_3  S_3  
     e( 28 - 28) =     18.30354  eV     1   --> B_2  D_4  S_4  
     e( 29 - 29) =     18.88833  eV     1   --> A_1  D_1  S_1  
     e( 30 - 30) =     19.50807  eV     1   --> B_2  D_4  S_4  
     e( 31 - 31) =     20.20046  eV     1   --> B_1  D_3  S_3  
     e( 32 - 32) =     20.94316  eV     1   --> A_1  D_1  S_1  

 **************************************************************************

 **************************************************************************

                    xk=(   0.32500,   0.50000,   0.00000  )

     Band symmetry, C_2v (mm2)  point group:

     e(  1 -  1) =    -24.03229  eV     1   --> B_2  D_4  S_4  
     e(  2 -  2) =    -11.47581  eV     1   --> A_1  D_1  S_1  
     e(  3 -  3) =    -11.12308  eV     1   --> A_1  D_1  S_1  
     e(  4 -  4) =    -10.80778  eV     1   --> B_2  D_4  S_4  
     e(  5 -  5) =    -10.79469  eV     1   --> A_2  D_2  S_2  
     e(  6 -  6) =    -10.78940  eV     1   --> B_1  D_3  S_3  
     e(  7 -  7) =     -7.95399  eV     1   --> A_1  D_1  S_1  
     e(  8 -  8) =     -7.66270  eV     1   --> B_2  D_4  S_4  
     e(  9 -  9) =     -6.49777  eV     1   --> A_1  D_1  S_1  
     e( 10 - 10) =     -5.95860  eV     1   --> A_2  D_2  S_2  
     e( 11 - 11) =     -5.83357  eV     1   --> B_2  D_4  S_4  
     e( 12 - 12) =     -5.74874  eV     1   --> A_1  D_1  S_1  
     e( 13 - 13) =      2.59255  eV     1   --> A_1  D_1  S_1  
     e( 14 - 14) =      4.75009  eV     1   --> B_1  D_3  S_3  
     e( 15 - 15) =      6.15819  eV     1   --> B_2  D_4  S_4  
     e( 16 - 16) =      7.09076  eV     1   --> A_1  D_1  S_1  
     e( 17 - 17) =      7.40416  eV     1   --> B_2  D_4  S_4  
     e( 18 - 18) =      7.62744  eV     1   --> A_2  D_2  S_2  
     e( 19 - 19) =      7.68078  eV     1   --> B_1  D_3  S_3  
     e( 20 - 20) =      8.20882  eV     1   --> A_1  D_1  S_1  
     e( 21 - 21) =      8.83571  eV     1   --> B_2  D_4  S_4  
     e( 22 - 22) =     15.15890  eV     1   --> A_1  D_1  S_1  
     e( 23 - 23) =     16.39054  eV     1   --> B_2  D_4  S_4  
     e( 24 - 24) =     16.65685  eV     1   --> A_1  D_1  S_1  
     e( 25 - 25) =     17.04815  eV     1   --> B_2  D_4  S_4  
     e( 26 - 26) =     17.31210  eV     1   --> A_2  D_2  S_2  
     e( 27 - 27) =     17.57811  eV     1   --> B_1  D_3  S_3  
     e( 28 - 28) =     18.25601  eV     1   --> B_2  D_4  S_4  
     e( 29 - 29) =     18.76096  eV     1   --> A_1  D_1  S_1  
     e( 30 - 30) =     19.41692  eV     1   --> B_2  D_4  S_4  
     e( 31 - 31) =     20.10115  eV     1   --> B_1  D_3  S_3  
     e( 32 - 32) =     20.90244  eV     1   --> A_1  D_1  S_1  

 **************************************************************************

 **************************************************************************

                    xk=(   0.35000,   0.50000,   0.00000  )

     Band symmetry, C_2v (mm2)  point group:

     e(  1 -  1) =    -24.03166  eV     1   --> B_2  D_4  S_4  
     e(  2 -  2) =    -11.47009  eV     1   --> A_1  D_1  S_1  
     e(  3 -  3) =    -11.10052  eV     1   --> A_1  D_1  S_1  
     e(  4 -  4) =    -10.80875  eV     1   --> B_2  D_4  S_4  
     e(  5 -  5) =    -10.79454  eV     1   --> A_2  D_2  S_2  
     e(  6 -  6) =    -10.79056  eV     1   --> B_1  D_3  S_3  
     e(  7 -  7) =     -7.91226  eV     1   --> A_1  D_1  S_1  
     e(  8 -  8) =     -7.67817  eV     1   --> B_2  D_4  S_4  
     e(  9 -  9) =     -6.59145  eV     1   --> A_1  D_1  S_1  
     e( 10 - 10) =     -5.95722  eV     1   --> A_2  D_2  S_2  
     e( 11 - 11) =     -5.82194  eV     1   --> B_2  D_4  S_4  
     e( 12 - 12) =     -5.75809  eV     1   --> A_1  D_1  S_1  
     e( 13 - 13) =      2.52622  eV     1   --> A_1  D_1  S_1  
     e( 14 - 14) =      4.78225  eV     1   --> B_1  D_3  S_3  
     e( 15 - 15) =      6.11782  eV     1   --> B_2  D_4  S_4  
     e( 16 - 16) =      7.20508  eV     1   --> A_1  D_1  S_1  
     e( 17 - 17) =      7.42465  eV     1   --> B_2  D_4  S_4  
     e( 18 - 18) =      7.60344  eV     1   -->   ?
     e( 19 - 19) =      7.64538  eV     1   -->   ?
     e( 20 - 20) =      8.24160  eV     1   --> A_1  D_1  S_1  
     e( 21 - 21) =      8.89389  eV     1   --> B_2  D_4  S_4  
     e( 22 - 22) =     15.31692  eV     1   --> A_1  D_1  S_1  
     e( 23 - 23) =     16.44994  eV     1   --> B_2  D_4  S_4  
     e( 24 - 24) =     16.62689  eV     1   --> A_1  D_1  S_1  
     e( 25 - 25) =     17.19267  eV     1   --> B_2  D_4  S_4  
     e( 26 - 26) =     17.38117  eV     1   --> A_2  D_2  S_2  
     e( 27 - 27) =     17.58254  eV     1   --> B_1  D_3  S_3  
     e( 28 - 28) =     18.22218  eV     1   --> B_2  D_4  S_4  
     e( 29 - 29) =     18.59919  eV     1   --> A_1  D_1  S_1  
     e( 30 - 30) =     19.34314  eV     1   --> B_2  D_4  S_4  
     e( 31 - 31) =     20.01505  eV     1   --> B_1  D_3  S_3  
     e( 32 - 32) =     20.88610  eV     1   --> A_1  D_1  S_1  

 **************************************************************************

 **************************************************************************

                    xk=(   0.37500,   0.50000,   0.00000  )

     Band symmetry, C_2v (mm2)  point group:

     e(  1 -  1) =    -24.03110  eV     1   --> B_2  D_4  S_4  
     e(  2 -  2) =    -11.46541  eV     1   --> A_1  D_1  S_1  
     e(  3 -  3) =    -11.07950  eV     1   --> A_1  D_1  S_1  
     e(  4 -  4) =    -10.80975  eV     1   --> B_2  D_4  S_4  
     e(  5 -  5) =    -10.79441  eV     1   --> A_2  D_2  S_2  
     e(  6 -  6) =    -10.79157  eV     1   --> B_1  D_3  S_3  
     e(  7 -  7) =     -7.86951  eV     1   --> A_1  D_1  S_1  
     e(  8 -  8) =     -7.69182  eV     1   --> B_2  D_4  S_4  
     e(  9 -  9) =     -6.68077  eV     1   --> A_1  D_1  S_1  
     e( 10 - 10) =     -5.95598  eV     1   --> A_2  D_2  S_2  
     e( 11 - 11) =     -5.81170  eV     1   --> B_2  D_4  S_4  
     e( 12 - 12) =     -5.76646  eV     1   --> A_1  D_1  S_1  
     e( 13 - 13) =      2.47059  eV     1   --> A_1  D_1  S_1  
     e( 14 - 14) =      4.81164  eV     1   --> B_1  D_3  S_3  
     e( 15 - 15) =      6.08237  eV     1   --> B_2  D_4  S_4  
     e( 16 - 16) =      7.29872  eV     1   --> A_1  D_1  S_1  
     e( 17 - 17) =      7.44390  eV     1   --> B_2  D_4  S_4  
     e( 18 - 18) =      7.58220  eV     1   -->   ?
     e( 19 - 19) =      7.61310  eV     1   -->   ?
     e( 20 - 20) =      8.27505  eV     1   --> A_1  D_1  S_1  
     e( 21 - 21) =      8.94453  eV     1   --> B_2  D_4  S_4  
     e( 22 - 22) =     15.46939  eV     1   --> A_1  D_1  S_1  
     e( 23 - 23) =     16.50619  eV     1   --> B_2  D_4  S_4  
     e( 24 - 24) =     16.62206  eV     1   --> A_1  D_1  S_1  
     e( 25 - 25) =     17.31657  eV     1   --> B_2  D_4  S_4  
     e( 26 - 26) =     17.44313  eV     1   --> A_2  D_2  S_2  
     e( 27 - 27) =     17.58655  eV     1   --> B_1  D_3  S_3  
     e( 28 - 28) =     18.21110  eV     1   --> B_2  D_4  S_4  
     e( 29 - 29) =     18.41047  eV     1   --> A_1  D_1  S_1  
     e( 30 - 30) =     19.28703  eV     1   --> B_2  D_4  S_4  
     e( 31 - 31) =     19.94219  eV     1   --> B_1  D_3  S_3  
     e( 32 - 32) =     20.88719  eV     1   --> A_1  D_1  S_1  

 **************************************************************************

 **************************************************************************

                    xk=(   0.40000,   0.50000,   0.00000  )

     Band symmetry, C_2v (mm2)  point group:

     e(  1 -  1) =    -24.03062  eV     1   --> B_2  D_4  S_4  
     e(  2 -  2) =    -11.46168  eV     1   --> A_1  D_1  S_1  
     e(  3 -  3) =    -11.06102  eV     1   --> A_1  D_1  S_1  
     e(  4 -  4) =    -10.81037  eV     1   --> B_2  D_4  S_4  
     e(  5 -  5) =    -10.79425  eV     1   --> A_2  D_2  S_2  
     e(  6 -  6) =    -10.79230  eV     1   --> B_1  D_3  S_3  
     e(  7 -  7) =     -7.82728  eV     1   --> A_1  D_1  S_1  
     e(  8 -  8) =     -7.70336  eV     1   --> B_2  D_4  S_4  
     e(  9 -  9) =     -6.76295  eV     1   --> A_1  D_1  S_1  
     e( 10 - 10) =     -5.95492  eV     1   --> A_2  D_2  S_2  
     e( 11 - 11) =     -5.80305  eV     1   --> B_2  D_4  S_4  
     e( 12 - 12) =     -5.77362  eV     1   --> A_1  D_1  S_1  
     e( 13 - 13) =      2.42546  eV     1   --> A_1  D_1  S_1  
     e( 14 - 14) =      4.83730  eV     1   --> B_1  D_3  S_3  
     e( 15 - 15) =      6.05259  eV     1   --> B_2  D_4  S_4  
     e( 16 - 16) =      7.37234  eV     1   --> A_1  D_1  S_1  
[...]
     e( 22 - 22) =     15.21479  eV     1   --> A_1  G_1 D_1   
     e( 23 - 24) =     15.53121  eV     2   --> E    G_5 D_5   
     e( 25 - 25) =     17.19252  eV     1   --> B_2  G_4 D_2'  
     e( 26 - 26) =     17.44484  eV     1   --> A_1  G_1 D_1   
     e( 27 - 27) =     18.20073  eV     1   --> A_2  G_2 D_1'  
     e( 28 - 28) =     18.49542  eV     1   --> B_2  G_4 D_2'  
     e( 29 - 30) =     19.13871  eV     2   --> E    G_5 D_5   
     e( 31 - 31) =     19.91109  eV     1   --> A_1  G_1 D_1   
     e( 32 - 32) =     21.23822  eV     1   -->   ?

 **************************************************************************

 **************************************************************************

                    xk=(   0.50000,   0.50000,   0.27500  )

     Band symmetry, C_4v (4mm)  point group:

     e(  1 -  1) =    -24.02471  eV     1   --> B_2  G_4 D_2'  
     e(  2 -  2) =    -11.22156  eV     1   --> A_1  G_1 D_1   
     e(  3 -  3) =    -11.02465  eV     1   --> B_1  G_3 D_2   
     e(  4 -  4) =    -10.81483  eV     1   --> B_2  G_4 D_2'  
     e(  5 -  6) =    -10.80761  eV     2   --> E    G_5 D_5   
     e(  7 -  8) =     -7.57609  eV     2   --> E    G_5 D_5   
     e(  9 -  9) =     -7.21174  eV     1   --> A_1  G_1 D_1   
     e( 10 - 10) =     -6.05867  eV     1   --> B_2  G_4 D_2'  
     e( 11 - 12) =     -5.97318  eV     2   --> E    G_5 D_5   
     e( 13 - 13) =      0.85638  eV     1   --> A_1  G_1 D_1   
     e( 14 - 14) =      6.40412  eV     1   --> B_2  G_4 D_2'  
     e( 15 - 16) =      6.85872  eV     2   --> E    G_5 D_5   
     e( 17 - 17) =      7.12290  eV     1   --> A_1  G_1 D_1   
     e( 18 - 18) =      8.38598  eV     1   --> B_1  G_3 D_2   
     e( 19 - 20) =      8.60556  eV     2   --> E    G_5 D_5   
     e( 21 - 21) =      9.10347  eV     1   --> A_2  G_2 D_1'  
     e( 22 - 22) =     15.11298  eV     1   --> A_1  G_1 D_1   
     e( 23 - 24) =     15.36066  eV     2   --> E    G_5 D_5   
     e( 25 - 25) =     17.29329  eV     1   --> B_2  G_4 D_2'  
     e( 26 - 26) =     17.53714  eV     1   --> A_1  G_1 D_1   
     e( 27 - 27) =     18.17033  eV     1   --> A_2  G_2 D_1'  
     e( 28 - 28) =     18.39260  eV     1   --> B_2  G_4 D_2'  
     e( 29 - 30) =     19.22169  eV     2   --> E    G_5 D_5   
     e( 31 - 31) =     19.89625  eV     1   --> A_1  G_1 D_1   
     e( 32 - 32) =     21.28806  eV     1   -->   ?

 **************************************************************************

 **************************************************************************

                    xk=(   0.50000,   0.50000,   0.30000  )

     Band symmetry, C_4v (4mm)  point group:

     e(  1 -  1) =    -24.02406  eV     1   --> B_2  G_4 D_2'  
     e(  2 -  2) =    -11.18812  eV     1   --> A_1  G_1 D_1   
     e(  3 -  3) =    -11.02473  eV     1   --> B_1  G_3 D_2   
     e(  4 -  4) =    -10.81554  eV     1   --> B_2  G_4 D_2'  
     e(  5 -  6) =    -10.80969  eV     2   --> E    G_5 D_5   
     e(  7 -  8) =     -7.55399  eV     2   --> E    G_5 D_5   
     e(  9 -  9) =     -7.25124  eV     1   --> A_1  G_1 D_1   
     e( 10 - 10) =     -6.07235  eV     1   --> B_2  G_4 D_2'  
     e( 11 - 12) =     -6.00023  eV     2   --> E    G_5 D_5   
     e( 13 - 13) =      0.73088  eV     1   --> A_1  G_1 D_1   
     e( 14 - 14) =      6.45911  eV     1   --> B_2  G_4 D_2'  
     e( 15 - 16) =      6.82699  eV     2   --> E    G_5 D_5   
     e( 17 - 17) =      7.35851  eV     1   --> A_1  G_1 D_1   
     e( 18 - 18) =      8.38704  eV     1   --> B_1  G_3 D_2   
     e( 19 - 20) =      8.70140  eV     2   --> E    G_5 D_5   
     e( 21 - 21) =      9.10859  eV     1   --> A_2  G_2 D_1'  
     e( 22 - 22) =     15.01230  eV     1   --> A_1  G_1 D_1   
     e( 23 - 24) =     15.20136  eV     2   --> E    G_5 D_5   
     e( 25 - 25) =     17.39841  eV     1   --> B_2  G_4 D_2'  
     e( 26 - 26) =     17.63698  eV     1   --> A_1  G_1 D_1   
     e( 27 - 27) =     18.14086  eV     1   --> A_2  G_2 D_1'  
     e( 28 - 28) =     18.29456  eV     1   --> B_2  G_4 D_2'  
     e( 29 - 30) =     19.28937  eV     2   --> E    G_5 D_5   
     e( 31 - 31) =     19.86914  eV     1   --> A_1  G_1 D_1   
     e( 32 - 32) =     21.33812  eV     1   -->   ?

 **************************************************************************

 **************************************************************************

                    xk=(   0.50000,   0.50000,   0.32500  )

     Band symmetry, C_4v (4mm)  point group:

     e(  1 -  1) =    -24.02343  eV     1   --> B_2  G_4 D_2'  
     e(  2 -  2) =    -11.15532  eV     1   --> A_1  G_1 D_1   
     e(  3 -  3) =    -11.02467  eV     1   --> B_1  G_3 D_2   
     e(  4 -  4) =    -10.81574  eV     1   --> B_2  G_4 D_2'  
     e(  5 -  6) =    -10.81133  eV     2   --> E    G_5 D_5   
     e(  7 -  8) =     -7.53229  eV     2   --> E    G_5 D_5   
     e(  9 -  9) =     -7.28963  eV     1   --> A_1  G_1 D_1   
     e( 10 - 10) =     -6.08527  eV     1   --> B_2  G_4 D_2'  
     e( 11 - 12) =     -6.02660  eV     2   --> E    G_5 D_5   
     e( 13 - 13) =      0.61878  eV     1   --> A_1  G_1 D_1   
     e( 14 - 14) =      6.51179  eV     1   --> B_2  G_4 D_2'  
     e( 15 - 16) =      6.79951  eV     2   --> E    G_5 D_5   
     e( 17 - 17) =      7.57853  eV     1   --> A_1  G_1 D_1   
     e( 18 - 18) =      8.38815  eV     1   --> B_1  G_3 D_2   
     e( 19 - 20) =      8.79166  eV     2   --> E    G_5 D_5   
     e( 21 - 21) =      9.11353  eV     1   --> A_2  G_2 D_1'  
     e( 22 - 22) =     14.91513  eV     1   --> A_1  G_1 D_1   
     e( 23 - 24) =     15.05496  eV     2   --> E    G_5 D_5   
     e( 25 - 25) =     17.50569  eV     1   --> B_2  G_4 D_2'  
     e( 26 - 26) =     17.74295  eV     1   --> A_1  G_1 D_1   
     e( 27 - 27) =     18.11304  eV     1   --> A_2  G_2 D_1'  
     e( 28 - 28) =     18.20330  eV     1   --> B_2  G_4 D_2'  
     e( 29 - 30) =     19.34297  eV     2   --> E    G_5 D_5   
     e( 31 - 31) =     19.82970  eV     1   --> A_1  G_1 D_1   
     e( 32 - 32) =     21.38717  eV     1   -->   ?

 **************************************************************************

 **************************************************************************

                    xk=(   0.50000,   0.50000,   0.35000  )

     Band symmetry, C_4v (4mm)  point group:

     e(  1 -  1) =    -24.02284  eV     1   --> B_2  G_4 D_2'  
     e(  2 -  2) =    -11.12420  eV     1   --> A_1  G_1 D_1   
     e(  3 -  3) =    -11.02475  eV     1   --> B_1  G_3 D_2   
     e(  4 -  4) =    -10.81618  eV     1   --> B_2  G_4 D_2'  
     e(  5 -  6) =    -10.81281  eV     2   --> E    G_5 D_5   
     e(  7 -  8) =     -7.51159  eV     2   --> E    G_5 D_5   
     e(  9 -  9) =     -7.32588  eV     1   --> A_1  G_1 D_1   
     e( 10 - 10) =     -6.09713  eV     1   --> B_2  G_4 D_2'  
     e( 11 - 12) =     -6.05161  eV     2   --> E    G_5 D_5   
     e( 13 - 13) =      0.52067  eV     1   --> A_1  G_1 D_1   
     e( 14 - 14) =      6.56062  eV     1   --> B_2  G_4 D_2'  
     e( 15 - 16) =      6.77607  eV     2   --> E    G_5 D_5   
     e( 17 - 17) =      7.77929  eV     1   --> A_1  G_1 D_1   
     e( 18 - 18) =      8.38914  eV     1   --> B_1  G_3 D_2   
     e( 19 - 20) =      8.87464  eV     2   --> E    G_5 D_5   
     e( 21 - 21) =      9.11811  eV     1   --> A_2  G_2 D_1'  
     e( 22 - 22) =     14.82386  eV     1   --> A_1  G_1 D_1   
     e( 23 - 24) =     14.92315  eV     2   --> E    G_5 D_5   
     e( 25 - 25) =     17.61225  eV     1   --> B_2  G_4 D_2'  
     e( 26 - 26) =     17.85292  eV     1   --> A_1  G_1 D_1   
     e( 27 - 27) =     18.08750  eV     1   --> A_2  G_2 D_1'  
     e( 28 - 28) =     18.12060  eV     1   --> B_2  G_4 D_2'  
     e( 29 - 30) =     19.38413  eV     2   --> E    G_5 D_5   
     e( 31 - 31) =     19.77872  eV     1   --> A_1  G_1 D_1   
     e( 32 - 32) =     21.43378  eV     1   -->   ?

 **************************************************************************

 **************************************************************************

                    xk=(   0.50000,   0.50000,   0.37500  )

     Band symmetry, C_4v (4mm)  point group:

     e(  1 -  1) =    -24.02232  eV     1   --> B_2  G_4 D_2'  
     e(  2 -  2) =    -11.09610  eV     1   --> A_1  G_1 D_1   
     e(  3 -  3) =    -11.02472  eV     1   --> B_1  G_3 D_2   
     e(  4 -  4) =    -10.81652  eV     1   --> B_2  G_4 D_2'  
     e(  5 -  6) =    -10.81418  eV     2   --> E    G_5 D_5   
     e(  7 -  8) =     -7.49254  eV     2   --> E    G_5 D_5   
     e(  9 -  9) =     -7.35893  eV     1   --> A_1  G_1 D_1   
     e( 10 - 10) =     -6.10768  eV     1   --> B_2  G_4 D_2'  
     e( 11 - 12) =     -6.07450  eV     2   --> E    G_5 D_5   
     e( 13 - 13) =      0.43702  eV     1   --> A_1  G_1 D_1   
     e( 14 - 14) =      6.60443  eV     1   --> B_2  G_4 D_2'  
     e( 15 - 16) =      6.75649  eV     2   --> E    G_5 D_5   
     e( 17 - 17) =      7.95712  eV     1   --> A_1  G_1 D_1   
     e( 18 - 18) =      8.39005  eV     1   --> B_1  G_3 D_2   
     e( 19 - 20) =      8.94871  eV     2   --> E    G_5 D_5   
     e( 21 - 21) =      9.12220  eV     1   --> A_2  G_2 D_1'  
     e( 22 - 22) =     14.74094  eV     1   --> A_1  G_1 D_1   
     e( 23 - 24) =     14.80768  eV     2   --> E    G_5 D_5   
     e( 25 - 25) =     17.71445  eV     1   --> B_2  G_4 D_2'  
     e( 26 - 26) =     17.96400  eV     1   --> A_1  G_1 D_1   
     e( 27 - 27) =     18.04812  eV     1   --> B_2  G_4 D_2'  
     e( 28 - 28) =     18.06484  eV     1   --> A_2  G_2 D_1'  
     e( 29 - 30) =     19.41468  eV     2   --> E    G_5 D_5   
     e( 31 - 31) =     19.71820  eV     1   --> A_1  G_1 D_1   
     e( 32 - 32) =     21.47645  eV     1   -->   ?

 **************************************************************************

 **************************************************************************

                    xk=(   0.50000,   0.50000,   0.40000  )

     Band symmetry, C_4v (4mm)  point group:

     e(  1 -  1) =    -24.02188  eV     1   --> B_2  G_4 D_2'  
     e(  2 -  2) =    -11.07165  eV     1   --> A_1  G_1 D_1   
     e(  3 -  3) =    -11.02470  eV     1   --> B_1  G_3 D_2   
     e(  4 -  4) =    -10.81686  eV     1   --> B_2  G_4 D_2'  
     e(  5 -  6) =    -10.81540  eV     2   --> E    G_5 D_5   
     e(  7 -  8) =     -7.47579  eV     2   --> E    G_5 D_5   
     e(  9 -  9) =     -7.38771  eV     1   --> A_1  G_1 D_1   
     e( 10 - 10) =     -6.11666  eV     1   --> B_2  G_4 D_2'  
     e( 11 - 12) =     -6.09454  eV     2   --> E    G_5 D_5   
     e( 13 - 13) =      0.36818  eV     1   --> A_1  G_1 D_1   
     e( 17 - 17) =      8.10854  eV     1   --> A_1  G_1 D_1   
     e( 18 - 18) =      8.39083  eV     1   --> B_1  G_3 D_2   
     e( 19 - 20) =      9.01221  eV     2   --> E    G_5 D_5   
     e( 21 - 21) =      9.12569  eV     1   --> A_2  G_2 D_1'  
     e( 22 - 22) =     14.66881  eV     1   --> A_1  G_1 D_1   
     e( 23 - 24) =     14.71026  eV     2   --> E    G_5 D_5   
     e( 25 - 25) =     17.80770  eV     1   --> B_2  G_4 D_2'  
     e( 26 - 26) =     17.98758  eV     1   --> B_2  G_4 D_2'  
     e( 27 - 27) =     18.04558  eV     1   --> A_2  G_2 D_1'  
     e( 28 - 28) =     18.07208  eV     1   --> A_1  G_1 D_1   
     e( 29 - 30) =     19.43653  eV     2   --> E    G_5 D_5   
     e( 31 - 31) =     19.65171  eV     1   --> A_1  G_1 D_1   
     e( 32 - 32) =     21.51372  eV     1   -->   ?

 **************************************************************************

 **************************************************************************

                    xk=(   0.50000,   0.50000,   0.42500  )

     Band symmetry, C_4v (4mm)  point group:

     e(  1 -  1) =    -24.02151  eV     1   --> B_2  G_4 D_2'  
     e(  2 -  2) =    -11.05165  eV     1   --> A_1  G_1 D_1   
     e(  3 -  3) =    -11.02445  eV     1   --> B_1  G_3 D_2   
     e(  4 -  4) =    -10.81679  eV     1   --> B_2  G_4 D_2'  
     e(  5 -  6) =    -10.81605  eV     2   --> E    G_5 D_5   
     e(  7 -  8) =     -7.46195  eV     2   --> E    G_5 D_5   
     e(  9 -  9) =     -7.41123  eV     1   --> A_1  G_1 D_1   
     e( 10 - 10) =     -6.12385  eV     1   --> B_2  G_4 D_2'  
     e( 11 - 12) =     -6.11098  eV     2   --> E    G_5 D_5   
     e( 13 - 13) =      0.31446  eV     1   --> A_1  G_1 D_1   
     e( 14 - 14) =      6.67245  eV     1   --> B_2  G_4 D_2'  
     e( 15 - 16) =      6.72848  eV     2   --> E    G_5 D_5   
     e( 17 - 17) =      8.23034  eV     1   --> A_1  G_1 D_1   
     e( 18 - 18) =      8.39155  eV     1   --> B_1  G_3 D_2   
     e( 19 - 20) =      9.06362  eV     2   --> E    G_5 D_5   
     e( 21 - 21) =      9.12860  eV     1   --> A_2  G_2 D_1'  
     e( 22 - 22) =     14.60979  eV     1   -->   ?
     e( 23 - 24) =     14.63250  eV     2   -->   ?
     e( 25 - 25) =     17.88392  eV     1   --> B_2  G_4 D_2'  
     e( 26 - 26) =     17.94337  eV     1   --> B_2  G_4 D_2'  
     e( 27 - 27) =     18.03015  eV     1   --> A_2  G_2 D_1'  
     e( 28 - 28) =     18.17137  eV     1   --> A_1  G_1 D_1   
     e( 29 - 30) =     19.45146  eV     2   --> E    G_5 D_5   
     e( 31 - 31) =     19.58481  eV     1   --> A_1  G_1 D_1   
     e( 32 - 32) =     21.54426  eV     1   -->   ?

 **************************************************************************

 **************************************************************************

                    xk=(   0.50000,   0.50000,   0.45000  )

     Band symmetry, C_4v (4mm)  point group:

     e(  1 -  1) =    -24.02124  eV     1   --> B_2  G_4 D_2'  
     e(  2 -  2) =    -11.03694  eV     1   --> A_1  G_1 D_1   
     e(  3 -  3) =    -11.02439  eV     1   --> B_1  G_3 D_2   
     e(  4 -  4) =    -10.81687  eV     1   --> B_2  G_4 D_2'  
     e(  5 -  6) =    -10.81646  eV     2   --> E    G_5 D_5   
     e(  9 -  9) =     -7.42868  eV     1   --> A_1  G_1 D_1   
     e( 10 - 10) =     -6.12910  eV     1   --> B_2  G_4 D_2'  
     e( 11 - 12) =     -6.12324  eV     2   --> E    G_5 D_5   
     e( 13 - 13) =      0.27599  eV     1   --> A_1  G_1 D_1   
     e( 17 - 17) =      8.31958  eV     1   --> A_1  G_1 D_1   
     e( 18 - 18) =      8.39204  eV     1   --> B_1  G_3 D_2   
     e( 22 - 22) =     14.56596  eV     1   -->   ?
     e( 23 - 24) =     14.57580  eV     2   -->   ?
     e( 25 - 25) =     17.89485  eV     1   --> B_2  G_4 D_2'  
     e( 26 - 26) =     17.95957  eV     1   -->   ?
     e( 27 - 27) =     18.01886  eV     1   -->   ?
     e( 28 - 28) =     18.25392  eV     1   --> A_1  G_1 D_1   
     e( 29 - 30) =     19.46098  eV     2   -->   ?
     e( 31 - 31) =     19.52537  eV     1   -->   ?
     e( 32 - 32) =     21.56695  eV     1   -->   ?

 **************************************************************************

 **************************************************************************

                    xk=(   0.50000,   0.50000,   0.47500  )

     Band symmetry, C_4v (4mm)  point group:

     e(  1 -  1) =    -24.02108  eV     1   --> B_2  G_4 D_2'  
     e(  2 -  2) =    -11.02746  eV     1   --> A_1  G_1 D_1   
     e(  3 -  3) =    -11.02438  eV     1   --> B_1  G_3 D_2   
     e(  4 -  4) =    -10.81697  eV     1   -->   ?
     e(  5 -  6) =    -10.81687  eV     2   -->   ?
     e(  7 -  8) =     -7.44521  eV     2   -->   ?
     e(  9 -  9) =     -7.43943  eV     1   -->   ?
     e( 10 - 10) =     -6.13230  eV     1   --> B_2  G_4 D_2'  
     e( 11 - 12) =     -6.13081  eV     2   --> E    G_5 D_5   
     e( 13 - 13) =      0.25287  eV     1   --> A_1  G_1 D_1   
     e( 14 - 14) =      6.70857  eV     1   -->   ?
     e( 15 - 16) =      6.71464  eV     2   -->   ?
     e( 17 - 17) =      8.37412  eV     1   -->   ?
     e( 18 - 18) =      8.39229  eV     1   -->   ?
     e( 19 - 20) =      9.12461  eV     2   -->   ?
     e( 21 - 21) =      9.13194  eV     1   -->   ?
     e( 22 - 22) =     14.53900  eV     1   -->   ?
     e( 23 - 24) =     14.54123  eV     2   -->   ?
     e( 25 - 25) =     17.87626  eV     1   --> B_2  G_4 D_2'  
     e( 26 - 26) =     17.99646  eV     1   -->   ?
     e( 27 - 27) =     18.01198  eV     1   -->   ?
     e( 28 - 28) =     18.30985  eV     1   --> A_1  G_1 D_1   
     e( 29 - 30) =     19.46624  eV     2   -->   ?
     e( 31 - 31) =     19.48321  eV     1   -->   ?
     e( 32 - 32) =     21.58092  eV     1   -->   ?

 **************************************************************************

 **************************************************************************

                    xk=(   0.50000,   0.50000,   0.50000  )

     point group O_h (m-3m) 
     there are 10 classes
     the character table:

       E     8C3   3C2   6C4   6C2'  i     8S6   3s_h  6S4   6s_d 
A_1g   1.00  1.00  1.00  1.00  1.00  1.00  1.00  1.00  1.00  1.00
A_2g   1.00  1.00  1.00 -1.00 -1.00  1.00  1.00  1.00 -1.00 -1.00
E_g    2.00 -1.00  2.00  0.00  0.00  2.00 -1.00  2.00  0.00  0.00
T_1g   3.00  0.00 -1.00  1.00 -1.00  3.00  0.00 -1.00  1.00 -1.00
T_2g   3.00  0.00 -1.00 -1.00  1.00  3.00  0.00 -1.00 -1.00  1.00
A_1u   1.00  1.00  1.00  1.00  1.00 -1.00 -1.00 -1.00 -1.00 -1.00
A_2u   1.00  1.00  1.00 -1.00 -1.00 -1.00 -1.00 -1.00  1.00  1.00
E_u    2.00 -1.00  2.00  0.00  0.00 -2.00  1.00 -2.00  0.00  0.00
T_1u   3.00  0.00 -1.00  1.00 -1.00 -3.00  0.00  1.00 -1.00  1.00
T_2u   3.00  0.00 -1.00 -1.00  1.00 -3.00  0.00  1.00  1.00 -1.00

     the symmetry operations in each class and the name of the first element:

     E        1
                                                                 
     8C3     17   19   20   18   24   21   22   23
                                                                 
     3C2      2    4    3
                                                                 
     6C4      7    8   15   16   12   11
                                                                 
     6C2'     5    6   14   13   10    9
                                                                 
     i       25
                                                                 
     8S6     41   43   44   42   48   45   46   47
                                                                 
     3s_h    26   28   27
                                                                 
     6S4     31   32   39   40   36   35
                                                                 
     6s_d    29   30   38   37   34   33
                                                                 

     Band symmetry, O_h (m-3m)  point group:

     e(  1 -  1) =    -24.02103  eV     1   --> A_2u G_2'  G_2-
     e(  2 -  3) =    -11.02438  eV     2   --> E_g  G_12  G_3+
     e(  4 -  6) =    -10.81701  eV     3   --> T_2g G_25' G_5+
     e(  7 -  9) =     -7.44305  eV     3   --> T_1u G_15  G_4-
     e( 10 - 12) =     -6.13337  eV     3   --> T_2g G_25' G_5+
     e( 13 - 13) =      0.24516  eV     1   --> A_1g G_1   G_1+
     e( 14 - 16) =      6.71303  eV     3   --> T_2g G_25' G_5+
     e( 17 - 18) =      8.39242  eV     2   --> E_g  G_12  G_3+
     e( 19 - 21) =      9.13241  eV     3   --> T_1g G_15' G_4+
     e( 22 - 24) =     14.52975  eV     3   --> T_1u G_15  G_4-
     e( 25 - 25) =     17.86945  eV     1   --> A_2u G_2'  G_2-
     e( 26 - 27) =     18.00969  eV     2   --> E_u  G_12' G_3-
     e( 28 - 28) =     18.32984  eV     1   --> A_1g G_1   G_1+
     e( 29 - 31) =     19.46788  eV     3   --> T_1u G_15  G_4-
     e( 32 - 32) =     21.58563  eV     1   -->   ?

 **************************************************************************

     BANDS        :  1m29.88s CPU     1m30.33s WALL


   This run was terminated on:   6:45:57  23Jun2019            

=------------------------------------------------------------------------------=
   JOB DONE.
=------------------------------------------------------------------------------=
