
     Program PWSCF v.6.3MaX starts on 19Jun2019 at 18:54:43 

     This program is part of the open-source Quantum ESPRESSO suite
     for quantum simulation of materials; please cite
         "P. Giannozzi et al., J. Phys.:Condens. Matter 21 395502 (2009);
         "P. Giannozzi et al., J. Phys.:Condens. Matter 29 465901 (2017);
          URL http://www.quantum-espresso.org", 
     in publications or presentations arising from this work. More details at
     http://www.quantum-espresso.org/quote

     Serial version
     Waiting for input...
     Reading input from standard input
Warning: card &IONS ignored
Warning: card                 ION_DYNAMICS = 'BFGS' ignored
Warning: card / ignored
Warning: card &CELL ignored
Warning: card                        PRESS = 0.0D0 ignored
Warning: card               PRESS_CONV_THR = 0.1D0 ignored
Warning: card / ignored

     Current dimensions of program PWSCF are:
     Max number of different atomic species (ntypx) = 10
     Max number of k-points (npk) =  40000
     Max angular momentum in pseudopotentials (lmaxx) =  3

     Atomic positions and unit cell read from directory:
     ./SrSnO3/pwscf.save/
 
               file Sn.pbe-dn-rrkjus_psl.1.0.0.UPF: wavefunction(s)  5S 4D renormalized
 
     G-vector sticks info
     --------------------
     sticks:   dense  smooth     PW     G-vecs:    dense   smooth      PW
     Sum        1153    1153    349                29423    29423    4801
 

     Title: 
     SrSnO3                                                                     


     bravais-lattice index     =            0
     lattice parameter (alat)  =       7.7760  a.u.
     unit-cell volume          =     470.1771 (a.u.)^3
     number of atoms/cell      =            5
     number of atomic types    =            3
     number of electrons       =        42.00
     number of Kohn-Sham states=           32
     kinetic-energy cutoff     =      60.0000  Ry
     charge density cutoff     =     240.0000  Ry
     Exchange-correlation      = PBE ( 1  4  3  4 0 0)

     celldm(1)=   7.775957  celldm(2)=   0.000000  celldm(3)=   0.000000
     celldm(4)=   0.000000  celldm(5)=   0.000000  celldm(6)=   0.000000

     crystal axes: (cart. coord. in units of alat)
               a(1) = (   1.000000   0.000000   0.000000 )  
               a(2) = (   0.000000   1.000000   0.000000 )  
               a(3) = (   0.000000   0.000000   1.000000 )  

     reciprocal axes: (cart. coord. in units 2 pi/alat)
               b(1) = (  1.000000  0.000000  0.000000 )  
               b(2) = (  0.000000  1.000000  0.000000 )  
               b(3) = (  0.000000  0.000000  1.000000 )  


     PseudoPot. # 1 for Sr read from file:
     ../../pseudo/Sr.pbe-spn-rrkjus_psl.1.0.0.UPF
     MD5 check sum: b01d2975708dfe0128124e08a9218b05
     Pseudo is Ultrasoft + core correction, Zval = 10.0
     Generated using "atomic" code by A. Dal Corso v.6.3MaX
     Using radial grid of 1221 points,  6 beta functions with: 
                l(1) =   0
                l(2) =   0
                l(3) =   1
                l(4) =   1
                l(5) =   2
                l(6) =   2
     Q(r) pseudized with 0 coefficients 


     PseudoPot. # 2 for Sn read from file:
     ../../pseudo/Sn.pbe-dn-rrkjus_psl.1.0.0.UPF
     MD5 check sum: 3003b82f74bfde8c3712ca6ff28e1dc2
     Pseudo is Ultrasoft + core correction, Zval = 14.0
     Generated using "atomic" code by A. Dal Corso v.6.3MaX
     Using radial grid of 1243 points,  6 beta functions with: 
                l(1) =   0
                l(2) =   0
                l(3) =   1
                l(4) =   1
                l(5) =   2
                l(6) =   2
     Q(r) pseudized with 0 coefficients 


     PseudoPot. # 3 for O  read from file:
     ../../pseudo/O.pbe-n-rrkjus_psl.1.0.0.UPF
     MD5 check sum: 0ab64894fae4206cf37bef81a8e22c07
     Pseudo is Ultrasoft + core correction, Zval =  6.0
     Generated using "atomic" code by A. Dal Corso v.6.3MaX
     Using radial grid of 1095 points,  4 beta functions with: 
                l(1) =   0
                l(2) =   0
                l(3) =   1
                l(4) =   1
     Q(r) pseudized with 0 coefficients 


     atomic species   valence    mass     pseudopotential
        Sr            10.00    87.62000     Sr( 1.00)
        Sn            14.00   118.71000     Sn( 1.00)
        O              6.00    15.99940     O ( 1.00)

     48 Sym. Ops., with inversion, found


                                    s                        frac. trans.

      isym =  1     identity                                     

 cryst.   s( 1) = (     1          0          0      )
                  (     0          1          0      )
                  (     0          0          1      )

 cart.    s( 1) = (  1.0000000  0.0000000  0.0000000 )
                  (  0.0000000  1.0000000  0.0000000 )
                  (  0.0000000  0.0000000  1.0000000 )


      isym =  2     180 deg rotation - cart. axis [0,0,1]        

 cryst.   s( 2) = (    -1          0          0      )
                  (     0         -1          0      )
                  (     0          0          1      )

 cart.    s( 2) = ( -1.0000000  0.0000000  0.0000000 )
                  (  0.0000000 -1.0000000  0.0000000 )
                  (  0.0000000  0.0000000  1.0000000 )


      isym =  3     180 deg rotation - cart. axis [0,1,0]        

 cryst.   s( 3) = (    -1          0          0      )
                  (     0          1          0      )
                  (     0          0         -1      )

 cart.    s( 3) = ( -1.0000000  0.0000000  0.0000000 )
                  (  0.0000000  1.0000000  0.0000000 )
                  (  0.0000000  0.0000000 -1.0000000 )


      isym =  4     180 deg rotation - cart. axis [1,0,0]        

 cryst.   s( 4) = (     1          0          0      )
                  (     0         -1          0      )
                  (     0          0         -1      )

 cart.    s( 4) = (  1.0000000  0.0000000  0.0000000 )
                  (  0.0000000 -1.0000000  0.0000000 )
                  (  0.0000000  0.0000000 -1.0000000 )


      isym =  5     180 deg rotation - cart. axis [1,1,0]        

 cryst.   s( 5) = (     0          1          0      )
                  (     1          0          0      )
                  (     0          0         -1      )

 cart.    s( 5) = (  0.0000000  1.0000000  0.0000000 )
                  (  1.0000000  0.0000000  0.0000000 )
                  (  0.0000000  0.0000000 -1.0000000 )


      isym =  6     180 deg rotation - cart. axis [1,-1,0]       

 cryst.   s( 6) = (     0         -1          0      )
                  (    -1          0          0      )
                  (     0          0         -1      )

 cart.    s( 6) = (  0.0000000 -1.0000000  0.0000000 )
                  ( -1.0000000  0.0000000  0.0000000 )
                  (  0.0000000  0.0000000 -1.0000000 )


      isym =  7      90 deg rotation - cart. axis [0,0,-1]       

 cryst.   s( 7) = (     0         -1          0      )
                  (     1          0          0      )
                  (     0          0          1      )

 cart.    s( 7) = (  0.0000000  1.0000000  0.0000000 )
                  ( -1.0000000  0.0000000  0.0000000 )
                  (  0.0000000  0.0000000  1.0000000 )


      isym =  8      90 deg rotation - cart. axis [0,0,1]        

 cryst.   s( 8) = (     0          1          0      )
                  (    -1          0          0      )
                  (     0          0          1      )

 cart.    s( 8) = (  0.0000000 -1.0000000  0.0000000 )
                  (  1.0000000  0.0000000  0.0000000 )
                  (  0.0000000  0.0000000  1.0000000 )


      isym =  9     180 deg rotation - cart. axis [1,0,1]        

 cryst.   s( 9) = (     0          0          1      )
                  (     0         -1          0      )
                  (     1          0          0      )

 cart.    s( 9) = (  0.0000000  0.0000000  1.0000000 )
                  (  0.0000000 -1.0000000  0.0000000 )
                  (  1.0000000  0.0000000  0.0000000 )


      isym = 10     180 deg rotation - cart. axis [-1,0,1]       

 cryst.   s(10) = (     0          0         -1      )
                  (     0         -1          0      )
                  (    -1          0          0      )

 cart.    s(10) = (  0.0000000  0.0000000 -1.0000000 )
                  (  0.0000000 -1.0000000  0.0000000 )
                  ( -1.0000000  0.0000000  0.0000000 )


      isym = 11      90 deg rotation - cart. axis [0,1,0]        

 cryst.   s(11) = (     0          0         -1      )
                  (     0          1          0      )
                  (     1          0          0      )

 cart.    s(11) = (  0.0000000  0.0000000  1.0000000 )
                  (  0.0000000  1.0000000  0.0000000 )
                  ( -1.0000000  0.0000000  0.0000000 )


      isym = 12      90 deg rotation - cart. axis [0,-1,0]       

 cryst.   s(12) = (     0          0          1      )
                  (     0          1          0      )
                  (    -1          0          0      )

 cart.    s(12) = (  0.0000000  0.0000000 -1.0000000 )
                  (  0.0000000  1.0000000  0.0000000 )
                  (  1.0000000  0.0000000  0.0000000 )


      isym = 13     180 deg rotation - cart. axis [0,1,1]        

 cryst.   s(13) = (    -1          0          0      )
                  (     0          0          1      )
                  (     0          1          0      )

 cart.    s(13) = ( -1.0000000  0.0000000  0.0000000 )
                  (  0.0000000  0.0000000  1.0000000 )
                  (  0.0000000  1.0000000  0.0000000 )


      isym = 14     180 deg rotation - cart. axis [0,1,-1]       

 cryst.   s(14) = (    -1          0          0      )
                  (     0          0         -1      )
                  (     0         -1          0      )

 cart.    s(14) = ( -1.0000000  0.0000000  0.0000000 )
                  (  0.0000000  0.0000000 -1.0000000 )
                  (  0.0000000 -1.0000000  0.0000000 )


      isym = 15      90 deg rotation - cart. axis [-1,0,0]       

 cryst.   s(15) = (     1          0          0      )
                  (     0          0         -1      )
                  (     0          1          0      )

 cart.    s(15) = (  1.0000000  0.0000000  0.0000000 )
                  (  0.0000000  0.0000000  1.0000000 )
                  (  0.0000000 -1.0000000  0.0000000 )


      isym = 16      90 deg rotation - cart. axis [1,0,0]        

 cryst.   s(16) = (     1          0          0      )
                  (     0          0          1      )
                  (     0         -1          0      )

 cart.    s(16) = (  1.0000000  0.0000000  0.0000000 )
                  (  0.0000000  0.0000000 -1.0000000 )
                  (  0.0000000  1.0000000  0.0000000 )


      isym = 17     120 deg rotation - cart. axis [-1,-1,-1]     

 cryst.   s(17) = (     0          0          1      )
                  (     1          0          0      )
                  (     0          1          0      )

 cart.    s(17) = (  0.0000000  1.0000000  0.0000000 )
                  (  0.0000000  0.0000000  1.0000000 )
                  (  1.0000000  0.0000000  0.0000000 )


      isym = 18     120 deg rotation - cart. axis [-1,1,1]       

 cryst.   s(18) = (     0          0         -1      )
                  (    -1          0          0      )
                  (     0          1          0      )

 cart.    s(18) = (  0.0000000 -1.0000000  0.0000000 )
                  (  0.0000000  0.0000000  1.0000000 )
                  ( -1.0000000  0.0000000  0.0000000 )


      isym = 19     120 deg rotation - cart. axis [1,1,-1]       

 cryst.   s(19) = (     0          0         -1      )
                  (     1          0          0      )
                  (     0         -1          0      )

 cart.    s(19) = (  0.0000000  1.0000000  0.0000000 )
                  (  0.0000000  0.0000000 -1.0000000 )
                  ( -1.0000000  0.0000000  0.0000000 )


      isym = 20     120 deg rotation - cart. axis [1,-1,1]       

 cryst.   s(20) = (     0          0          1      )
                  (    -1          0          0      )
                  (     0         -1          0      )

 cart.    s(20) = (  0.0000000 -1.0000000  0.0000000 )
                  (  0.0000000  0.0000000 -1.0000000 )
                  (  1.0000000  0.0000000  0.0000000 )


      isym = 21     120 deg rotation - cart. axis [1,1,1]        

 cryst.   s(21) = (     0          1          0      )
                  (     0          0          1      )
                  (     1          0          0      )

 cart.    s(21) = (  0.0000000  0.0000000  1.0000000 )
                  (  1.0000000  0.0000000  0.0000000 )
                  (  0.0000000  1.0000000  0.0000000 )


      isym = 22     120 deg rotation - cart. axis [-1,1,-1]      

 cryst.   s(22) = (     0         -1          0      )
                  (     0          0         -1      )
                  (     1          0          0      )

 cart.    s(22) = (  0.0000000  0.0000000  1.0000000 )
                  ( -1.0000000  0.0000000  0.0000000 )
                  (  0.0000000 -1.0000000  0.0000000 )


      isym = 23     120 deg rotation - cart. axis [1,-1,-1]      

 cryst.   s(23) = (     0         -1          0      )
                  (     0          0          1      )
                  (    -1          0          0      )

 cart.    s(23) = (  0.0000000  0.0000000 -1.0000000 )
                  ( -1.0000000  0.0000000  0.0000000 )
                  (  0.0000000  1.0000000  0.0000000 )


      isym = 24     120 deg rotation - cart. axis [-1,-1,1]      

 cryst.   s(24) = (     0          1          0      )
                  (     0          0         -1      )
                  (    -1          0          0      )

 cart.    s(24) = (  0.0000000  0.0000000 -1.0000000 )
                  (  1.0000000  0.0000000  0.0000000 )
                  (  0.0000000 -1.0000000  0.0000000 )


      isym = 25     inversion                                    

 cryst.   s(25) = (    -1          0          0      )
                  (     0         -1          0      )
                  (     0          0         -1      )

 cart.    s(25) = ( -1.0000000  0.0000000  0.0000000 )
                  (  0.0000000 -1.0000000  0.0000000 )
                  (  0.0000000  0.0000000 -1.0000000 )


      isym = 26     inv. 180 deg rotation - cart. axis [0,0,1]   

 cryst.   s(26) = (     1          0          0      )
                  (     0          1          0      )
                  (     0          0         -1      )

 cart.    s(26) = (  1.0000000  0.0000000  0.0000000 )
                  (  0.0000000  1.0000000  0.0000000 )
                  (  0.0000000  0.0000000 -1.0000000 )


      isym = 27     inv. 180 deg rotation - cart. axis [0,1,0]   

 cryst.   s(27) = (     1          0          0      )
                  (     0         -1          0      )
                  (     0          0          1      )

 cart.    s(27) = (  1.0000000  0.0000000  0.0000000 )
                  (  0.0000000 -1.0000000  0.0000000 )
                  (  0.0000000  0.0000000  1.0000000 )


      isym = 28     inv. 180 deg rotation - cart. axis [1,0,0]   

 cryst.   s(28) = (    -1          0          0      )
                  (     0          1          0      )
                  (     0          0          1      )

 cart.    s(28) = ( -1.0000000  0.0000000  0.0000000 )
                  (  0.0000000  1.0000000  0.0000000 )
                  (  0.0000000  0.0000000  1.0000000 )


      isym = 29     inv. 180 deg rotation - cart. axis [1,1,0]   

 cryst.   s(29) = (     0         -1          0      )
                  (    -1          0          0      )
                  (     0          0          1      )

 cart.    s(29) = (  0.0000000 -1.0000000  0.0000000 )
                  ( -1.0000000  0.0000000  0.0000000 )
                  (  0.0000000  0.0000000  1.0000000 )


      isym = 30     inv. 180 deg rotation - cart. axis [1,-1,0]  

 cryst.   s(30) = (     0          1          0      )
                  (     1          0          0      )
                  (     0          0          1      )

 cart.    s(30) = (  0.0000000  1.0000000  0.0000000 )
                  (  1.0000000  0.0000000  0.0000000 )
                  (  0.0000000  0.0000000  1.0000000 )


      isym = 31     inv.  90 deg rotation - cart. axis [0,0,-1]  

 cryst.   s(31) = (     0          1          0      )
                  (    -1          0          0      )
                  (     0          0         -1      )

 cart.    s(31) = (  0.0000000 -1.0000000  0.0000000 )
                  (  1.0000000  0.0000000  0.0000000 )
                  (  0.0000000  0.0000000 -1.0000000 )


      isym = 32     inv.  90 deg rotation - cart. axis [0,0,1]   

 cryst.   s(32) = (     0         -1          0      )
                  (     1          0          0      )
                  (     0          0         -1      )

 cart.    s(32) = (  0.0000000  1.0000000  0.0000000 )
                  ( -1.0000000  0.0000000  0.0000000 )
                  (  0.0000000  0.0000000 -1.0000000 )


      isym = 33     inv. 180 deg rotation - cart. axis [1,0,1]   

 cryst.   s(33) = (     0          0         -1      )
                  (     0          1          0      )
                  (    -1          0          0      )

 cart.    s(33) = (  0.0000000  0.0000000 -1.0000000 )
                  (  0.0000000  1.0000000  0.0000000 )
                  ( -1.0000000  0.0000000  0.0000000 )


      isym = 34     inv. 180 deg rotation - cart. axis [-1,0,1]  

 cryst.   s(34) = (     0          0          1      )
                  (     0          1          0      )
                  (     1          0          0      )

 cart.    s(34) = (  0.0000000  0.0000000  1.0000000 )
                  (  0.0000000  1.0000000  0.0000000 )
                  (  1.0000000  0.0000000  0.0000000 )


      isym = 35     inv.  90 deg rotation - cart. axis [0,1,0]   

 cryst.   s(35) = (     0          0          1      )
                  (     0         -1          0      )
                  (    -1          0          0      )

 cart.    s(35) = (  0.0000000  0.0000000 -1.0000000 )
                  (  0.0000000 -1.0000000  0.0000000 )
                  (  1.0000000  0.0000000  0.0000000 )


      isym = 36     inv.  90 deg rotation - cart. axis [0,-1,0]  

 cryst.   s(36) = (     0          0         -1      )
                  (     0         -1          0      )
                  (     1          0          0      )

 cart.    s(36) = (  0.0000000  0.0000000  1.0000000 )
                  (  0.0000000 -1.0000000  0.0000000 )
                  ( -1.0000000  0.0000000  0.0000000 )


      isym = 37     inv. 180 deg rotation - cart. axis [0,1,1]   

 cryst.   s(37) = (     1          0          0      )
                  (     0          0         -1      )
                  (     0         -1          0      )

 cart.    s(37) = (  1.0000000  0.0000000  0.0000000 )
                  (  0.0000000  0.0000000 -1.0000000 )
                  (  0.0000000 -1.0000000  0.0000000 )


      isym = 38     inv. 180 deg rotation - cart. axis [0,1,-1]  

 cryst.   s(38) = (     1          0          0      )
                  (     0          0          1      )
                  (     0          1          0      )

 cart.    s(38) = (  1.0000000  0.0000000  0.0000000 )
                  (  0.0000000  0.0000000  1.0000000 )
                  (  0.0000000  1.0000000  0.0000000 )


      isym = 39     inv.  90 deg rotation - cart. axis [-1,0,0]  

 cryst.   s(39) = (    -1          0          0      )
                  (     0          0          1      )
                  (     0         -1          0      )

 cart.    s(39) = ( -1.0000000  0.0000000  0.0000000 )
                  (  0.0000000  0.0000000 -1.0000000 )
                  (  0.0000000  1.0000000  0.0000000 )


      isym = 40     inv.  90 deg rotation - cart. axis [1,0,0]   

 cryst.   s(40) = (    -1          0          0      )
                  (     0          0         -1      )
                  (     0          1          0      )

 cart.    s(40) = ( -1.0000000  0.0000000  0.0000000 )
                  (  0.0000000  0.0000000  1.0000000 )
                  (  0.0000000 -1.0000000  0.0000000 )


      isym = 41     inv. 120 deg rotation - cart. axis [-1,-1,-1]

 cryst.   s(41) = (     0          0         -1      )
                  (    -1          0          0      )
                  (     0         -1          0      )

 cart.    s(41) = (  0.0000000 -1.0000000  0.0000000 )
                  (  0.0000000  0.0000000 -1.0000000 )
                  ( -1.0000000  0.0000000  0.0000000 )


      isym = 42     inv. 120 deg rotation - cart. axis [-1,1,1]  

 cryst.   s(42) = (     0          0          1      )
                  (     1          0          0      )
                  (     0         -1          0      )

 cart.    s(42) = (  0.0000000  1.0000000  0.0000000 )
                  (  0.0000000  0.0000000 -1.0000000 )
                  (  1.0000000  0.0000000  0.0000000 )


      isym = 43     inv. 120 deg rotation - cart. axis [1,1,-1]  

 cryst.   s(43) = (     0          0          1      )
                  (    -1          0          0      )
                  (     0          1          0      )

 cart.    s(43) = (  0.0000000 -1.0000000  0.0000000 )
                  (  0.0000000  0.0000000  1.0000000 )
                  (  1.0000000  0.0000000  0.0000000 )


      isym = 44     inv. 120 deg rotation - cart. axis [1,-1,1]  

 cryst.   s(44) = (     0          0         -1      )
                  (     1          0          0      )
                  (     0          1          0      )

 cart.    s(44) = (  0.0000000  1.0000000  0.0000000 )
                  (  0.0000000  0.0000000  1.0000000 )
                  ( -1.0000000  0.0000000  0.0000000 )


      isym = 45     inv. 120 deg rotation - cart. axis [1,1,1]   

 cryst.   s(45) = (     0         -1          0      )
                  (     0          0         -1      )
                  (    -1          0          0      )

 cart.    s(45) = (  0.0000000  0.0000000 -1.0000000 )
                  ( -1.0000000  0.0000000  0.0000000 )
                  (  0.0000000 -1.0000000  0.0000000 )


      isym = 46     inv. 120 deg rotation - cart. axis [-1,1,-1] 

 cryst.   s(46) = (     0          1          0      )
                  (     0          0          1      )
                  (    -1          0          0      )

 cart.    s(46) = (  0.0000000  0.0000000 -1.0000000 )
                  (  1.0000000  0.0000000  0.0000000 )
                  (  0.0000000  1.0000000  0.0000000 )


      isym = 47     inv. 120 deg rotation - cart. axis [1,-1,-1] 

 cryst.   s(47) = (     0          1          0      )
                  (     0          0         -1      )
                  (     1          0          0      )

 cart.    s(47) = (  0.0000000  0.0000000  1.0000000 )
                  (  1.0000000  0.0000000  0.0000000 )
                  (  0.0000000 -1.0000000  0.0000000 )


      isym = 48     inv. 120 deg rotation - cart. axis [-1,-1,1] 

 cryst.   s(48) = (     0         -1          0      )
                  (     0          0          1      )
                  (     1          0          0      )

 cart.    s(48) = (  0.0000000  0.0000000  1.0000000 )
                  ( -1.0000000  0.0000000  0.0000000 )
                  (  0.0000000  1.0000000  0.0000000 )


   Cartesian axes

     site n.     atom                  positions (alat units)
         1           Sr  tau(   1) = (   0.5000000   0.5000000   0.5000000  )
         2           Sn  tau(   2) = (   0.0000000   0.0000000   0.0000000  )
         3           O   tau(   3) = (   0.0000000   0.0000000   0.5000000  )
         4           O   tau(   4) = (   0.5000000   0.0000000   0.0000000  )
         5           O   tau(   5) = (   0.0000000   0.5000000   0.0000000  )

   Crystallographic axes

     site n.     atom                  positions (cryst. coord.)
         1           Sr  tau(   1) = (  0.5000000  0.5000000  0.5000000  )
         2           Sn  tau(   2) = (  0.0000000  0.0000000  0.0000000  )
         3           O   tau(   3) = (  0.0000000  0.0000000  0.5000000  )
         4           O   tau(   4) = (  0.5000000  0.0000000  0.0000000  )
         5           O   tau(   5) = (  0.0000000  0.5000000  0.0000000  )

     number of k points=   122
                       cart. coord. in units 2pi/alat
        k(    1) = (   0.0000000   0.0000000   0.0000000), wk =   0.0163934
        k(    2) = (   0.0000000   0.0250000   0.0000000), wk =   0.0163934
        k(    3) = (   0.0000000   0.0500000   0.0000000), wk =   0.0163934
        k(    4) = (   0.0000000   0.0750000   0.0000000), wk =   0.0163934
        k(    5) = (   0.0000000   0.1000000   0.0000000), wk =   0.0163934
        k(    6) = (   0.0000000   0.1250000   0.0000000), wk =   0.0163934
        k(    7) = (   0.0000000   0.1500000   0.0000000), wk =   0.0163934
        k(    8) = (   0.0000000   0.1750000   0.0000000), wk =   0.0163934
        k(    9) = (   0.0000000   0.2000000   0.0000000), wk =   0.0163934
        k(   10) = (   0.0000000   0.2250000   0.0000000), wk =   0.0163934
        k(   11) = (   0.0000000   0.2500000   0.0000000), wk =   0.0163934
        k(   12) = (   0.0000000   0.2750000   0.0000000), wk =   0.0163934
        k(   13) = (   0.0000000   0.3000000   0.0000000), wk =   0.0163934
        k(   14) = (   0.0000000   0.3250000   0.0000000), wk =   0.0163934
        k(   15) = (   0.0000000   0.3500000   0.0000000), wk =   0.0163934
        k(   16) = (   0.0000000   0.3750000   0.0000000), wk =   0.0163934
        k(   17) = (   0.0000000   0.4000000   0.0000000), wk =   0.0163934
        k(   18) = (   0.0000000   0.4250000   0.0000000), wk =   0.0163934
        k(   19) = (   0.0000000   0.4500000   0.0000000), wk =   0.0163934
        k(   20) = (   0.0000000   0.4750000   0.0000000), wk =   0.0163934
        k(   21) = (   0.0000000   0.5000000   0.0000000), wk =   0.0163934
        k(   22) = (   0.0250000   0.5000000   0.0000000), wk =   0.0163934
        k(   23) = (   0.0500000   0.5000000   0.0000000), wk =   0.0163934
        k(   24) = (   0.0750000   0.5000000   0.0000000), wk =   0.0163934
        k(   25) = (   0.1000000   0.5000000   0.0000000), wk =   0.0163934
        k(   26) = (   0.1250000   0.5000000   0.0000000), wk =   0.0163934
        k(   27) = (   0.1500000   0.5000000   0.0000000), wk =   0.0163934
        k(   28) = (   0.1750000   0.5000000   0.0000000), wk =   0.0163934
        k(   29) = (   0.2000000   0.5000000   0.0000000), wk =   0.0163934
        k(   30) = (   0.2250000   0.5000000   0.0000000), wk =   0.0163934
        k(   31) = (   0.2500000   0.5000000   0.0000000), wk =   0.0163934
        k(   32) = (   0.2750000   0.5000000   0.0000000), wk =   0.0163934
        k(   33) = (   0.3000000   0.5000000   0.0000000), wk =   0.0163934
        k(   34) = (   0.3250000   0.5000000   0.0000000), wk =   0.0163934
        k(   35) = (   0.3500000   0.5000000   0.0000000), wk =   0.0163934
        k(   36) = (   0.3750000   0.5000000   0.0000000), wk =   0.0163934
        k(   37) = (   0.4000000   0.5000000   0.0000000), wk =   0.0163934
        k(   38) = (   0.4250000   0.5000000   0.0000000), wk =   0.0163934
        k(   39) = (   0.4500000   0.5000000   0.0000000), wk =   0.0163934
        k(   40) = (   0.4750000   0.5000000   0.0000000), wk =   0.0163934
        k(   41) = (   0.5000000   0.5000000   0.0000000), wk =   0.0163934
        k(   42) = (   0.4750000   0.4750000   0.0000000), wk =   0.0163934
        k(   43) = (   0.4500000   0.4500000   0.0000000), wk =   0.0163934
        k(   44) = (   0.4250000   0.4250000   0.0000000), wk =   0.0163934
        k(   45) = (   0.4000000   0.4000000   0.0000000), wk =   0.0163934
        k(   46) = (   0.3750000   0.3750000   0.0000000), wk =   0.0163934
        k(   47) = (   0.3500000   0.3500000   0.0000000), wk =   0.0163934
        k(   48) = (   0.3250000   0.3250000   0.0000000), wk =   0.0163934
        k(   49) = (   0.3000000   0.3000000   0.0000000), wk =   0.0163934
        k(   50) = (   0.2750000   0.2750000   0.0000000), wk =   0.0163934
        k(   51) = (   0.2500000   0.2500000   0.0000000), wk =   0.0163934
        k(   52) = (   0.2250000   0.2250000   0.0000000), wk =   0.0163934
        k(   53) = (   0.2000000   0.2000000   0.0000000), wk =   0.0163934
        k(   54) = (   0.1750000   0.1750000   0.0000000), wk =   0.0163934
        k(   55) = (   0.1500000   0.1500000   0.0000000), wk =   0.0163934
        k(   56) = (   0.1250000   0.1250000   0.0000000), wk =   0.0163934
        k(   57) = (   0.1000000   0.1000000   0.0000000), wk =   0.0163934
        k(   58) = (   0.0750000   0.0750000   0.0000000), wk =   0.0163934
        k(   59) = (   0.0500000   0.0500000   0.0000000), wk =   0.0163934
        k(   60) = (   0.0250000   0.0250000   0.0000000), wk =   0.0163934
        k(   61) = (   0.0000000   0.0000000   0.0000000), wk =   0.0163934
        k(   62) = (   0.0250000   0.0250000   0.0250000), wk =   0.0163934
        k(   63) = (   0.0500000   0.0500000   0.0500000), wk =   0.0163934
        k(   64) = (   0.0750000   0.0750000   0.0750000), wk =   0.0163934
        k(   65) = (   0.1000000   0.1000000   0.1000000), wk =   0.0163934
        k(   66) = (   0.1250000   0.1250000   0.1250000), wk =   0.0163934
        k(   67) = (   0.1500000   0.1500000   0.1500000), wk =   0.0163934
        k(   68) = (   0.1750000   0.1750000   0.1750000), wk =   0.0163934
        k(   69) = (   0.2000000   0.2000000   0.2000000), wk =   0.0163934
        k(   70) = (   0.2250000   0.2250000   0.2250000), wk =   0.0163934
        k(   71) = (   0.2500000   0.2500000   0.2500000), wk =   0.0163934
        k(   72) = (   0.2750000   0.2750000   0.2750000), wk =   0.0163934
        k(   73) = (   0.3000000   0.3000000   0.3000000), wk =   0.0163934
        k(   74) = (   0.3250000   0.3250000   0.3250000), wk =   0.0163934
        k(   75) = (   0.3500000   0.3500000   0.3500000), wk =   0.0163934
        k(   76) = (   0.3750000   0.3750000   0.3750000), wk =   0.0163934
        k(   77) = (   0.4000000   0.4000000   0.4000000), wk =   0.0163934
        k(   78) = (   0.4250000   0.4250000   0.4250000), wk =   0.0163934
        k(   79) = (   0.4500000   0.4500000   0.4500000), wk =   0.0163934
        k(   80) = (   0.4750000   0.4750000   0.4750000), wk =   0.0163934
        k(   81) = (   0.5000000   0.5000000   0.5000000), wk =   0.0163934
        k(   82) = (   0.4750000   0.5000000   0.4750000), wk =   0.0163934
        k(   83) = (   0.4500000   0.5000000   0.4500000), wk =   0.0163934
        k(   84) = (   0.4250000   0.5000000   0.4250000), wk =   0.0163934
        k(   85) = (   0.4000000   0.5000000   0.4000000), wk =   0.0163934
        k(   86) = (   0.3750000   0.5000000   0.3750000), wk =   0.0163934
        k(   87) = (   0.3500000   0.5000000   0.3500000), wk =   0.0163934
        k(   88) = (   0.3250000   0.5000000   0.3250000), wk =   0.0163934
        k(   89) = (   0.3000000   0.5000000   0.3000000), wk =   0.0163934
        k(   90) = (   0.2750000   0.5000000   0.2750000), wk =   0.0163934
        k(   91) = (   0.2500000   0.5000000   0.2500000), wk =   0.0163934
        k(   92) = (   0.2250000   0.5000000   0.2250000), wk =   0.0163934
        k(   93) = (   0.2000000   0.5000000   0.2000000), wk =   0.0163934
        k(   94) = (   0.1750000   0.5000000   0.1750000), wk =   0.0163934
        k(   95) = (   0.1500000   0.5000000   0.1500000), wk =   0.0163934
        k(   96) = (   0.1250000   0.5000000   0.1250000), wk =   0.0163934
        k(   97) = (   0.1000000   0.5000000   0.1000000), wk =   0.0163934
        k(   98) = (   0.0750000   0.5000000   0.0750000), wk =   0.0163934
        k(   99) = (   0.0500000   0.5000000   0.0500000), wk =   0.0163934
        k(  100) = (   0.0250000   0.5000000   0.0250000), wk =   0.0163934
        k(  101) = (   0.0000000   0.5000000   0.0000000), wk =   0.0163934
        k(  102) = (   0.5000000   0.5000000   0.0000000), wk =   0.0163934
        k(  103) = (   0.5000000   0.5000000   0.0250000), wk =   0.0163934
        k(  104) = (   0.5000000   0.5000000   0.0500000), wk =   0.0163934
        k(  105) = (   0.5000000   0.5000000   0.0750000), wk =   0.0163934
        k(  106) = (   0.5000000   0.5000000   0.1000000), wk =   0.0163934
        k(  107) = (   0.5000000   0.5000000   0.1250000), wk =   0.0163934
        k(  108) = (   0.5000000   0.5000000   0.1500000), wk =   0.0163934
        k(  109) = (   0.5000000   0.5000000   0.1750000), wk =   0.0163934
        k(  110) = (   0.5000000   0.5000000   0.2000000), wk =   0.0163934
        k(  111) = (   0.5000000   0.5000000   0.2250000), wk =   0.0163934
        k(  112) = (   0.5000000   0.5000000   0.2500000), wk =   0.0163934
        k(  113) = (   0.5000000   0.5000000   0.2750000), wk =   0.0163934
        k(  114) = (   0.5000000   0.5000000   0.3000000), wk =   0.0163934
        k(  115) = (   0.5000000   0.5000000   0.3250000), wk =   0.0163934
        k(  116) = (   0.5000000   0.5000000   0.3500000), wk =   0.0163934
        k(  117) = (   0.5000000   0.5000000   0.3750000), wk =   0.0163934
        k(  118) = (   0.5000000   0.5000000   0.4000000), wk =   0.0163934
        k(  119) = (   0.5000000   0.5000000   0.4250000), wk =   0.0163934
        k(  120) = (   0.5000000   0.5000000   0.4500000), wk =   0.0163934
        k(  121) = (   0.5000000   0.5000000   0.4750000), wk =   0.0163934
        k(  122) = (   0.5000000   0.5000000   0.5000000), wk =   0.0163934

                       cryst. coord.
        k(    1) = (   0.0000000   0.0000000   0.0000000), wk =   0.0163934
        k(    2) = (   0.0000000   0.0250000   0.0000000), wk =   0.0163934
        k(    3) = (   0.0000000   0.0500000   0.0000000), wk =   0.0163934
        k(    4) = (   0.0000000   0.0750000   0.0000000), wk =   0.0163934
        k(    5) = (   0.0000000   0.1000000   0.0000000), wk =   0.0163934
        k(    6) = (   0.0000000   0.1250000   0.0000000), wk =   0.0163934
        k(    7) = (   0.0000000   0.1500000   0.0000000), wk =   0.0163934
        k(    8) = (   0.0000000   0.1750000   0.0000000), wk =   0.0163934
        k(    9) = (   0.0000000   0.2000000   0.0000000), wk =   0.0163934
        k(   10) = (   0.0000000   0.2250000   0.0000000), wk =   0.0163934
        k(   11) = (   0.0000000   0.2500000   0.0000000), wk =   0.0163934
        k(   12) = (   0.0000000   0.2750000   0.0000000), wk =   0.0163934
        k(   13) = (   0.0000000   0.3000000   0.0000000), wk =   0.0163934
        k(   14) = (   0.0000000   0.3250000   0.0000000), wk =   0.0163934
        k(   15) = (   0.0000000   0.3500000   0.0000000), wk =   0.0163934
        k(   16) = (   0.0000000   0.3750000   0.0000000), wk =   0.0163934
        k(   17) = (   0.0000000   0.4000000   0.0000000), wk =   0.0163934
        k(   18) = (   0.0000000   0.4250000   0.0000000), wk =   0.0163934
        k(   19) = (   0.0000000   0.4500000   0.0000000), wk =   0.0163934
        k(   20) = (   0.0000000   0.4750000   0.0000000), wk =   0.0163934
        k(   21) = (   0.0000000   0.5000000   0.0000000), wk =   0.0163934
        k(   22) = (   0.0250000   0.5000000   0.0000000), wk =   0.0163934
        k(   23) = (   0.0500000   0.5000000   0.0000000), wk =   0.0163934
        k(   24) = (   0.0750000   0.5000000   0.0000000), wk =   0.0163934
        k(   25) = (   0.1000000   0.5000000   0.0000000), wk =   0.0163934
        k(   26) = (   0.1250000   0.5000000   0.0000000), wk =   0.0163934
        k(   27) = (   0.1500000   0.5000000   0.0000000), wk =   0.0163934
        k(   28) = (   0.1750000   0.5000000   0.0000000), wk =   0.0163934
        k(   29) = (   0.2000000   0.5000000   0.0000000), wk =   0.0163934
        k(   30) = (   0.2250000   0.5000000   0.0000000), wk =   0.0163934
        k(   31) = (   0.2500000   0.5000000   0.0000000), wk =   0.0163934
        k(   32) = (   0.2750000   0.5000000   0.0000000), wk =   0.0163934
        k(   33) = (   0.3000000   0.5000000   0.0000000), wk =   0.0163934
        k(   34) = (   0.3250000   0.5000000   0.0000000), wk =   0.0163934
        k(   35) = (   0.3500000   0.5000000   0.0000000), wk =   0.0163934
        k(   36) = (   0.3750000   0.5000000   0.0000000), wk =   0.0163934
        k(   37) = (   0.4000000   0.5000000   0.0000000), wk =   0.0163934
        k(   38) = (   0.4250000   0.5000000   0.0000000), wk =   0.0163934
        k(   39) = (   0.4500000   0.5000000   0.0000000), wk =   0.0163934
        k(   40) = (   0.4750000   0.5000000   0.0000000), wk =   0.0163934
        k(   41) = (   0.5000000   0.5000000   0.0000000), wk =   0.0163934
        k(   42) = (   0.4750000   0.4750000   0.0000000), wk =   0.0163934
        k(   43) = (   0.4500000   0.4500000   0.0000000), wk =   0.0163934
        k(   44) = (   0.4250000   0.4250000   0.0000000), wk =   0.0163934
        k(   45) = (   0.4000000   0.4000000   0.0000000), wk =   0.0163934
        k(   46) = (   0.3750000   0.3750000   0.0000000), wk =   0.0163934
        k(   47) = (   0.3500000   0.3500000   0.0000000), wk =   0.0163934
        k(   48) = (   0.3250000   0.3250000   0.0000000), wk =   0.0163934
        k(   49) = (   0.3000000   0.3000000   0.0000000), wk =   0.0163934
        k(   50) = (   0.2750000   0.2750000   0.0000000), wk =   0.0163934
        k(   51) = (   0.2500000   0.2500000   0.0000000), wk =   0.0163934
        k(   52) = (   0.2250000   0.2250000   0.0000000), wk =   0.0163934
        k(   53) = (   0.2000000   0.2000000   0.0000000), wk =   0.0163934
        k(   54) = (   0.1750000   0.1750000   0.0000000), wk =   0.0163934
        k(   55) = (   0.1500000   0.1500000   0.0000000), wk =   0.0163934
        k(   56) = (   0.1250000   0.1250000   0.0000000), wk =   0.0163934
        k(   57) = (   0.1000000   0.1000000   0.0000000), wk =   0.0163934
        k(   58) = (   0.0750000   0.0750000   0.0000000), wk =   0.0163934
        k(   59) = (   0.0500000   0.0500000   0.0000000), wk =   0.0163934
        k(   60) = (   0.0250000   0.0250000   0.0000000), wk =   0.0163934
        k(   61) = (   0.0000000   0.0000000   0.0000000), wk =   0.0163934
        k(   62) = (   0.0250000   0.0250000   0.0250000), wk =   0.0163934
        k(   63) = (   0.0500000   0.0500000   0.0500000), wk =   0.0163934
        k(   64) = (   0.0750000   0.0750000   0.0750000), wk =   0.0163934
        k(   65) = (   0.1000000   0.1000000   0.1000000), wk =   0.0163934
        k(   66) = (   0.1250000   0.1250000   0.1250000), wk =   0.0163934
        k(   67) = (   0.1500000   0.1500000   0.1500000), wk =   0.0163934
        k(   68) = (   0.1750000   0.1750000   0.1750000), wk =   0.0163934
        k(   69) = (   0.2000000   0.2000000   0.2000000), wk =   0.0163934
        k(   70) = (   0.2250000   0.2250000   0.2250000), wk =   0.0163934
        k(   71) = (   0.2500000   0.2500000   0.2500000), wk =   0.0163934
        k(   72) = (   0.2750000   0.2750000   0.2750000), wk =   0.0163934
        k(   73) = (   0.3000000   0.3000000   0.3000000), wk =   0.0163934
        k(   74) = (   0.3250000   0.3250000   0.3250000), wk =   0.0163934
        k(   75) = (   0.3500000   0.3500000   0.3500000), wk =   0.0163934
        k(   76) = (   0.3750000   0.3750000   0.3750000), wk =   0.0163934
        k(   77) = (   0.4000000   0.4000000   0.4000000), wk =   0.0163934
        k(   78) = (   0.4250000   0.4250000   0.4250000), wk =   0.0163934
        k(   79) = (   0.4500000   0.4500000   0.4500000), wk =   0.0163934
        k(   80) = (   0.4750000   0.4750000   0.4750000), wk =   0.0163934
        k(   81) = (   0.5000000   0.5000000   0.5000000), wk =   0.0163934
        k(   82) = (   0.4750000   0.5000000   0.4750000), wk =   0.0163934
        k(   83) = (   0.4500000   0.5000000   0.4500000), wk =   0.0163934
        k(   84) = (   0.4250000   0.5000000   0.4250000), wk =   0.0163934
        k(   85) = (   0.4000000   0.5000000   0.4000000), wk =   0.0163934
        k(   86) = (   0.3750000   0.5000000   0.3750000), wk =   0.0163934
        k(   87) = (   0.3500000   0.5000000   0.3500000), wk =   0.0163934
        k(   88) = (   0.3250000   0.5000000   0.3250000), wk =   0.0163934
        k(   89) = (   0.3000000   0.5000000   0.3000000), wk =   0.0163934
        k(   90) = (   0.2750000   0.5000000   0.2750000), wk =   0.0163934
        k(   91) = (   0.2500000   0.5000000   0.2500000), wk =   0.0163934
        k(   92) = (   0.2250000   0.5000000   0.2250000), wk =   0.0163934
        k(   93) = (   0.2000000   0.5000000   0.2000000), wk =   0.0163934
        k(   94) = (   0.1750000   0.5000000   0.1750000), wk =   0.0163934
        k(   95) = (   0.1500000   0.5000000   0.1500000), wk =   0.0163934
        k(   96) = (   0.1250000   0.5000000   0.1250000), wk =   0.0163934
        k(   97) = (   0.1000000   0.5000000   0.1000000), wk =   0.0163934
        k(   98) = (   0.0750000   0.5000000   0.0750000), wk =   0.0163934
        k(   99) = (   0.0500000   0.5000000   0.0500000), wk =   0.0163934
        k(  100) = (   0.0250000   0.5000000   0.0250000), wk =   0.0163934
        k(  101) = (   0.0000000   0.5000000   0.0000000), wk =   0.0163934
        k(  102) = (   0.5000000   0.5000000   0.0000000), wk =   0.0163934
        k(  103) = (   0.5000000   0.5000000   0.0250000), wk =   0.0163934
        k(  104) = (   0.5000000   0.5000000   0.0500000), wk =   0.0163934
        k(  105) = (   0.5000000   0.5000000   0.0750000), wk =   0.0163934
        k(  106) = (   0.5000000   0.5000000   0.1000000), wk =   0.0163934
        k(  107) = (   0.5000000   0.5000000   0.1250000), wk =   0.0163934
        k(  108) = (   0.5000000   0.5000000   0.1500000), wk =   0.0163934
        k(  109) = (   0.5000000   0.5000000   0.1750000), wk =   0.0163934
        k(  110) = (   0.5000000   0.5000000   0.2000000), wk =   0.0163934
        k(  111) = (   0.5000000   0.5000000   0.2250000), wk =   0.0163934
        k(  112) = (   0.5000000   0.5000000   0.2500000), wk =   0.0163934
        k(  113) = (   0.5000000   0.5000000   0.2750000), wk =   0.0163934
        k(  114) = (   0.5000000   0.5000000   0.3000000), wk =   0.0163934
        k(  115) = (   0.5000000   0.5000000   0.3250000), wk =   0.0163934
        k(  116) = (   0.5000000   0.5000000   0.3500000), wk =   0.0163934
        k(  117) = (   0.5000000   0.5000000   0.3750000), wk =   0.0163934
        k(  118) = (   0.5000000   0.5000000   0.4000000), wk =   0.0163934
        k(  119) = (   0.5000000   0.5000000   0.4250000), wk =   0.0163934
        k(  120) = (   0.5000000   0.5000000   0.4500000), wk =   0.0163934
        k(  121) = (   0.5000000   0.5000000   0.4750000), wk =   0.0163934
        k(  122) = (   0.5000000   0.5000000   0.5000000), wk =   0.0163934

     Dense  grid:    29423 G-vectors     FFT dimensions: (  40,  40,  40)

     Dynamical RAM for                 wfc:       1.80 MB

     Dynamical RAM for     wfc (w. buffer):       1.80 MB

     Dynamical RAM for           str. fact:       1.35 MB

     Dynamical RAM for           local pot:       0.00 MB

     Dynamical RAM for          nlocal pot:       3.38 MB

     Dynamical RAM for                qrad:       4.62 MB

     Dynamical RAM for          rho,v,vnew:       2.81 MB

     Dynamical RAM for           G-vectors:       1.91 MB

     Dynamical RAM for          h,s,v(r/c):       0.05 MB

     Dynamical RAM for          <psi|beta>:       0.03 MB

     Dynamical RAM for      wfcinit/wfcrot:       3.63 MB

     Dynamical RAM for           addusdens:      84.85 MB

     Estimated static dynamical RAM per process >      20.10 MB

     Estimated max dynamical RAM per process >     104.95 MB

     Check: negative/imaginary core charge=   -0.000010    0.000000

     The potential is recalculated from file :
     ./SrSnO3/pwscf.save/charge-density.dat

     Starting wfcs are   29 randomized atomic wfcs +    3 random wfcs

     Band Structure Calculation
     CG style diagonalization

     Computing kpt #:     1
     total cpu time spent up to now is        5.1 secs

     Computing kpt #:     2
     total cpu time spent up to now is       16.2 secs

     Computing kpt #:     3
     total cpu time spent up to now is       26.4 secs

     Computing kpt #:     4
     total cpu time spent up to now is       36.4 secs

     Computing kpt #:     5
     total cpu time spent up to now is       43.7 secs

     Computing kpt #:     6
     total cpu time spent up to now is       50.5 secs

     Computing kpt #:     7
     total cpu time spent up to now is       57.2 secs

     Computing kpt #:     8
     total cpu time spent up to now is       64.0 secs

     Computing kpt #:     9
     total cpu time spent up to now is       70.1 secs

     Computing kpt #:    10
     total cpu time spent up to now is       76.4 secs

     Computing kpt #:    11
     total cpu time spent up to now is       82.9 secs

     Computing kpt #:    12
     total cpu time spent up to now is       89.5 secs

     Computing kpt #:    13
     total cpu time spent up to now is       96.0 secs

     Computing kpt #:    14
     total cpu time spent up to now is      102.5 secs

     Computing kpt #:    15
     total cpu time spent up to now is      109.2 secs

     Computing kpt #:    16
     total cpu time spent up to now is      115.6 secs

     Computing kpt #:    17
     total cpu time spent up to now is      122.0 secs

     Computing kpt #:    18
     total cpu time spent up to now is      128.4 secs

     Computing kpt #:    19
     total cpu time spent up to now is      134.9 secs

     Computing kpt #:    20
     total cpu time spent up to now is      141.6 secs

     Computing kpt #:    21
     total cpu time spent up to now is      147.6 secs

     Computing kpt #:    22
     total cpu time spent up to now is      160.0 secs

     Computing kpt #:    23
     total cpu time spent up to now is      169.8 secs

     Computing kpt #:    24
     total cpu time spent up to now is      178.9 secs

     Computing kpt #:    25
     total cpu time spent up to now is      187.2 secs

     Computing kpt #:    26
     total cpu time spent up to now is      195.2 secs

     Computing kpt #:    27
     total cpu time spent up to now is      202.6 secs

     Computing kpt #:    28
     total cpu time spent up to now is      210.1 secs

     Computing kpt #:    29
     total cpu time spent up to now is      217.8 secs

     Computing kpt #:    30
     total cpu time spent up to now is      225.2 secs

     Computing kpt #:    31
     total cpu time spent up to now is      231.7 secs

     Computing kpt #:    32
     total cpu time spent up to now is      237.9 secs

     Computing kpt #:    33
     total cpu time spent up to now is      244.2 secs

     Computing kpt #:    34
     total cpu time spent up to now is      250.4 secs

     Computing kpt #:    35
     total cpu time spent up to now is      257.0 secs

     Computing kpt #:    36
     total cpu time spent up to now is      262.8 secs

     Computing kpt #:    37
     total cpu time spent up to now is      269.7 secs

     Computing kpt #:    38
     total cpu time spent up to now is      276.0 secs

     Computing kpt #:    39
     total cpu time spent up to now is      282.6 secs

     Computing kpt #:    40
     total cpu time spent up to now is      288.7 secs

     Computing kpt #:    41
     total cpu time spent up to now is      295.0 secs

     Computing kpt #:    42
     total cpu time spent up to now is      303.2 secs

     Computing kpt #:    43
     total cpu time spent up to now is      313.0 secs

     Computing kpt #:    44
     total cpu time spent up to now is      322.8 secs

     Computing kpt #:    45
     total cpu time spent up to now is      330.3 secs

     Computing kpt #:    46
     total cpu time spent up to now is      337.4 secs

     Computing kpt #:    47
     total cpu time spent up to now is      344.0 secs

     Computing kpt #:    48
     total cpu time spent up to now is      350.4 secs

     Computing kpt #:    49
     total cpu time spent up to now is      356.4 secs

     Computing kpt #:    50
     total cpu time spent up to now is      362.6 secs

     Computing kpt #:    51
     total cpu time spent up to now is      369.7 secs

     Computing kpt #:    52
     total cpu time spent up to now is      376.2 secs

     Computing kpt #:    53
     total cpu time spent up to now is      384.1 secs

     Computing kpt #:    54
     total cpu time spent up to now is      391.2 secs

     Computing kpt #:    55
     total cpu time spent up to now is      398.2 secs

     Computing kpt #:    56
     total cpu time spent up to now is      406.6 secs

     Computing kpt #:    57
     total cpu time spent up to now is      415.8 secs

     Computing kpt #:    58
     total cpu time spent up to now is      426.9 secs

     Computing kpt #:    59
     total cpu time spent up to now is      436.3 secs

     Computing kpt #:    60
     total cpu time spent up to now is      446.7 secs

     Computing kpt #:    61
     total cpu time spent up to now is      450.4 secs

     Computing kpt #:    62
     total cpu time spent up to now is      458.9 secs

     Computing kpt #:    63
     total cpu time spent up to now is      466.1 secs

     Computing kpt #:    64
     total cpu time spent up to now is      472.6 secs

     Computing kpt #:    65
     total cpu time spent up to now is      478.4 secs

     Computing kpt #:    66
     total cpu time spent up to now is      484.8 secs

     Computing kpt #:    67
     total cpu time spent up to now is      491.5 secs

     Computing kpt #:    68
     total cpu time spent up to now is      497.9 secs

     Computing kpt #:    69
     total cpu time spent up to now is      505.2 secs

     Computing kpt #:    70
     total cpu time spent up to now is      514.7 secs

     Computing kpt #:    71
     total cpu time spent up to now is      521.2 secs

     Computing kpt #:    72
     total cpu time spent up to now is      527.4 secs

     Computing kpt #:    73
     total cpu time spent up to now is      534.0 secs

     Computing kpt #:    74
     total cpu time spent up to now is      540.9 secs

     Computing kpt #:    75
     total cpu time spent up to now is      547.0 secs

     Computing kpt #:    76
     total cpu time spent up to now is      552.0 secs

     Computing kpt #:    77
     total cpu time spent up to now is      557.4 secs

     Computing kpt #:    78
     total cpu time spent up to now is      562.4 secs

     Computing kpt #:    79
     total cpu time spent up to now is      568.8 secs

     Computing kpt #:    80
     total cpu time spent up to now is      574.5 secs

     Computing kpt #:    81
     total cpu time spent up to now is      578.3 secs

     Computing kpt #:    82
     total cpu time spent up to now is      587.1 secs

     Computing kpt #:    83
     total cpu time spent up to now is      594.8 secs

     Computing kpt #:    84
     total cpu time spent up to now is      601.3 secs

     Computing kpt #:    85
     total cpu time spent up to now is      607.2 secs

     Computing kpt #:    86
     total cpu time spent up to now is      612.6 secs

     Computing kpt #:    87
     total cpu time spent up to now is      617.6 secs

     Computing kpt #:    88
     total cpu time spent up to now is      622.9 secs

     Computing kpt #:    89
     total cpu time spent up to now is      630.4 secs

     Computing kpt #:    90
     total cpu time spent up to now is      638.5 secs

     Computing kpt #:    91
     total cpu time spent up to now is      643.9 secs

     Computing kpt #:    92
     total cpu time spent up to now is      649.2 secs

     Computing kpt #:    93
     total cpu time spent up to now is      654.6 secs

     Computing kpt #:    94
     total cpu time spent up to now is      661.1 secs

     Computing kpt #:    95
     total cpu time spent up to now is      667.8 secs

     Computing kpt #:    96
     total cpu time spent up to now is      672.7 secs

     Computing kpt #:    97
     total cpu time spent up to now is      679.0 secs

     Computing kpt #:    98
     total cpu time spent up to now is      685.5 secs

     Computing kpt #:    99
     total cpu time spent up to now is      691.1 secs

     Computing kpt #:   100
     total cpu time spent up to now is      697.5 secs

     Computing kpt #:   101
     total cpu time spent up to now is      702.7 secs

     Computing kpt #:   102
     total cpu time spent up to now is      707.7 secs

     Computing kpt #:   103
     total cpu time spent up to now is      714.1 secs

     Computing kpt #:   104
     total cpu time spent up to now is      720.0 secs

     Computing kpt #:   105
     total cpu time spent up to now is      724.5 secs

     Computing kpt #:   106
     total cpu time spent up to now is      729.1 secs

     Computing kpt #:   107
     total cpu time spent up to now is      734.4 secs

     Computing kpt #:   108
     total cpu time spent up to now is      739.5 secs

     Computing kpt #:   109
     total cpu time spent up to now is      744.1 secs

     Computing kpt #:   110
     total cpu time spent up to now is      749.6 secs

     Computing kpt #:   111
     total cpu time spent up to now is      754.1 secs

     Computing kpt #:   112
     total cpu time spent up to now is      759.5 secs

     Computing kpt #:   113
     total cpu time spent up to now is      764.3 secs

     Computing kpt #:   114
     total cpu time spent up to now is      769.7 secs

     Computing kpt #:   115
     total cpu time spent up to now is      775.1 secs

     Computing kpt #:   116
     total cpu time spent up to now is      779.9 secs

     Computing kpt #:   117
     total cpu time spent up to now is      785.3 secs

     Computing kpt #:   118
     total cpu time spent up to now is      790.7 secs

     Computing kpt #:   119
     total cpu time spent up to now is      795.8 secs

     Computing kpt #:   120
     total cpu time spent up to now is      802.1 secs

     Computing kpt #:   121
     total cpu time spent up to now is      809.9 secs

     Computing kpt #:   122
     total cpu time spent up to now is      813.6 secs

     ethr =  2.38E-11,  avg # of iterations =106.2

     total cpu time spent up to now is      813.6 secs

     End of band structure calculation

          k = 0.0000 0.0000 0.0000 (  3743 PWs)   bands (ev):

   -24.0500 -11.5906 -11.5906 -10.7780 -10.7780 -10.7780  -8.7889  -6.0139
    -6.0139  -6.0139  -5.6992  -5.6992   4.2957   4.2957   4.2957   8.1325
     8.1325   8.1325   8.3488   8.3488   8.3488  10.0444  14.3462  14.3462
    14.8892  16.2462  16.2462  16.2462  21.9928  21.9928  21.9928  24.9788

          k = 0.0000 0.0250 0.0000 (  3743 PWs)   bands (ev):

   -24.0499 -11.5906 -11.5888 -10.7781 -10.7781 -10.7780  -8.7878  -6.0201
    -6.0137  -6.0137  -5.6996  -5.6991   4.2964   4.2966   4.2966   8.1291
     8.1297   8.1300   8.3260   8.3473   8.3473  10.0766  14.3547  14.3557
    14.9013  16.2481  16.2536  16.2537  21.9813  21.9919  21.9920  24.9499

          k = 0.0000 0.0500 0.0000 (  3735 PWs)   bands (ev):

   -24.0497 -11.5905 -11.5834 -10.7784 -10.7784 -10.7780  -8.7843  -6.0386
    -6.0129  -6.0129  -5.7006  -5.6987   4.2985   4.2993   4.2993   8.1149
     8.1240   8.1241   8.2622   8.3427   8.3427  10.1686  14.3801  14.3839
    14.9374  16.2535  16.2760  16.2760  21.9469  21.9896  21.9896  24.8672

          k = 0.0000 0.0750 0.0000 (  3743 PWs)   bands (ev):

   -24.0494 -11.5904 -11.5748 -10.7791 -10.7791 -10.7780  -8.7784  -6.0697
    -6.0118  -6.0118  -5.7017  -5.6980   4.3022   4.3037   4.3037   8.0932
     8.1139   8.1139   8.1676   8.3351   8.3351  10.3098  14.4217  14.4301
    14.9974  16.2625  16.3127  16.3127  21.8899  21.9859  21.9859  24.7411

          k = 0.0000 0.1000 0.0000 (  3743 PWs)   bands (ev):

   -24.0490 -11.5903 -11.5630 -10.7799 -10.7799 -10.7780  -8.7699  -6.1136
    -6.0101  -6.0101  -5.7022  -5.6971   4.3075   4.3097   4.3097   8.0533
     8.0641   8.1002   8.1002   8.3246   8.3246  10.4889  14.4786  14.4931
    15.0810  16.2748  16.3630  16.3630  21.8106  21.9813  21.9813  24.5839

          k = 0.0000 0.1250 0.0000 (  3747 PWs)   bands (ev):

   -24.0485 -11.5902 -11.5482 -10.7809 -10.7809 -10.7780  -8.7584  -6.1700
    -6.0081  -6.0081  -5.7016  -5.6961   4.3145   4.3172   4.3172   7.9277
     8.0286   8.0836   8.0836   8.3114   8.3114  10.6971  14.5495  14.5714
    15.1877  16.2903  16.4257  16.4257  21.7096  21.9761  21.9761  24.4069

          k = 0.0000 0.1500 0.0000 (  3731 PWs)   bands (ev):

   -24.0478 -11.5898 -11.5308 -10.7819 -10.7819 -10.7779  -8.7438  -6.2381
    -6.0057  -6.0057  -5.7000  -5.6947   4.3234   4.3260   4.3260   7.7966
     7.9879   8.0648   8.0648   8.2956   8.2956  10.9278  14.6329  14.6629
    15.3169  16.3088  16.4994  16.4994  21.5878  21.9709  21.9709  24.2192

          k = 0.0000 0.1750 0.0000 (  3735 PWs)   bands (ev):

   -24.0471 -11.5896 -11.5112 -10.7833 -10.7833 -10.7778  -8.7257  -6.3169
    -6.0030  -6.0030  -5.6972  -5.6933   4.3342   4.3358   4.3358   7.6642
     7.9430   8.0444   8.0444   8.2775   8.2775  11.1762  14.7269  14.7655
    15.4679  16.3297  16.5826  16.5826  21.4460  21.9665  21.9665  24.0275

          k = 0.0000 0.2000 0.0000 (  3715 PWs)   bands (ev):

   -24.0463 -11.5892 -11.4899 -10.7844 -10.7844 -10.7777  -8.7037  -6.4051
    -6.0001  -6.0001  -5.6935  -5.6917   4.3465   4.3465   4.3470   7.5330
     7.8957   8.0233   8.0233   8.2573   8.2573  11.4385  14.8296  14.8769
    15.6398  16.3528  16.6733  16.6733  21.2854  21.9638  21.9638  23.8369

          k = 0.0000 0.2250 0.0000 (  3707 PWs)   bands (ev):

   -24.0455 -11.5889 -11.4674 -10.7857 -10.7857 -10.7777  -8.6774  -6.5014
    -5.9971  -5.9971  -5.6901  -5.6891   4.3576   4.3576   4.3617   7.4051
     7.8469   8.0023   8.0023   8.2352   8.2352  11.7113  14.9386  14.9944
    15.8316  16.3775  16.7696  16.7696  21.1077  21.9635  21.9635  23.6512

          k = 0.0000 0.2500 0.0000 (  3691 PWs)   bands (ev):

   -24.0447 -11.5886 -11.4443 -10.7870 -10.7870 -10.7774  -8.6466  -6.6040
    -5.9940  -5.9940  -5.6884  -5.6841   4.3691   4.3691   4.3780   7.2822
     7.7981   7.9821   7.9821   8.2118   8.2118  11.9914  15.0512  15.1152
    16.0422  16.4033  16.8692  16.8692  20.9147  21.9668  21.9668  23.4736

          k = 0.0000 0.2750 0.0000 (  3695 PWs)   bands (ev):

   -24.0439 -11.5883 -11.4212 -10.7886 -10.7886 -10.7774  -8.6110  -6.7114
    -5.9908  -5.9908  -5.6867  -5.6789   4.3805   4.3805   4.3958   7.1654
     7.7503   7.9633   7.9633   8.1874   8.1874  12.2752  15.1648  15.2367
    16.2704  16.4296  16.9698  16.9698  20.7087  21.9745  21.9745  23.3064

          k = 0.0000 0.3000 0.0000 (  3703 PWs)   bands (ev):

   -24.0431 -11.5880 -11.3987 -10.7900 -10.7900 -10.7775  -8.5705  -6.8218
    -5.9878  -5.9878  -5.6850  -5.6736   4.3915   4.3915   4.4146   7.0562
     7.7046   7.9466   7.9466   8.1624   8.1624  12.5588  15.2761  15.3559
    16.4559  16.5147  17.0690  17.0690  20.4925  21.9877  21.9877  23.1516

          k = 0.0000 0.3250 0.0000 (  3683 PWs)   bands (ev):

   -24.0423 -11.5876 -11.3769 -10.7912 -10.7912 -10.7774  -8.5253  -6.9333
    -5.9849  -5.9849  -5.6834  -5.6684   4.4020   4.4020   4.4340   6.9557
     7.6622   7.9323   7.9323   8.1374   8.1374  12.8377  15.3821  15.4701
    16.4812  16.7735  17.1643  17.1643  20.2694  22.0074  22.0074  23.0114

          k = 0.0000 0.3500 0.0000 (  3683 PWs)   bands (ev):

   -24.0416 -11.5873 -11.3571 -10.7925 -10.7925 -10.7773  -8.4759  -7.0437
    -5.9822  -5.9822  -5.6820  -5.6635   4.4117   4.4117   4.4533   6.8651
     7.6236   7.9209   7.9209   8.1129   8.1129  13.1063  15.4792  15.5762
    16.5051  17.0444  17.2531  17.2531  20.0431  22.0341  22.0341  22.6132

          k = 0.0000 0.3750 0.0000 (  3699 PWs)   bands (ev):

   -24.0410 -11.5873 -11.3394 -10.7937 -10.7937 -10.7775  -8.4232  -7.1506
    -5.9798  -5.9798  -5.6807  -5.6592   4.4202   4.4202   4.4717   6.7857
     7.5898   7.9124   7.9124   8.0896   8.0896  13.3582  15.5644  15.6716
    16.5268  17.3245  17.3332  17.3332  19.8171  22.0685  22.0685  22.2366

          k = 0.0000 0.4000 0.0000 (  3695 PWs)   bands (ev):

   -24.0404 -11.5870 -11.3240 -10.7948 -10.7948 -10.7774  -8.3692  -7.2509
    -5.9778  -5.9778  -5.6795  -5.6554   4.4276   4.4276   4.4884   6.7186
     7.5613   7.9068   7.9068   8.0683   8.0683  13.5854  15.6351  15.7537
    16.5457  17.4022  17.4022  17.6102  19.5942  21.8918  22.1101  22.1101

          k = 0.0000 0.4250 0.0000 (  3692 PWs)   bands (ev):

   -24.0400 -11.5868 -11.3119 -10.7955 -10.7955 -10.7774  -8.3168  -7.3404
    -5.9761  -5.9761  -5.6786  -5.6523   4.4334   4.4334   4.5026   6.6649
     7.5387   7.9037   7.9037   8.0498   8.0498  13.7787  15.6894  15.8203
    16.5610  17.4583  17.4583  17.8965  19.3754  21.5916  22.1576  22.1576

          k = 0.0000 0.4500 0.0000 (  3692 PWs)   bands (ev):

   -24.0397 -11.5867 -11.3029 -10.7961 -10.7961 -10.7774  -8.2709  -7.4134
    -5.9749  -5.9749  -5.6780  -5.6501   4.4377   4.4377   4.5134   6.6257
     7.5222   7.9026   7.9026   8.0353   8.0353  13.9277  15.7271  15.8693
    16.5724  17.4995  17.4995  18.1771  19.1582  21.3536  22.2071  22.2071

          k = 0.0000 0.4750 0.0000 (  3684 PWs)   bands (ev):

   -24.0395 -11.5866 -11.2976 -10.7963 -10.7963 -10.7772  -8.2385  -7.4623
    -5.9742  -5.9742  -5.6776  -5.6487   4.4403   4.4403   4.5202   6.6019
     7.5121   7.9025   7.9025   8.0259   8.0259  14.0223  15.7487  15.8993
    16.5794  17.5248  17.5248  18.4451  18.9371  21.1984  22.2491  22.2491

          k = 0.0000 0.5000 0.0000 (  3668 PWs)   bands (ev):

   -24.0394 -11.5865 -11.2954 -10.7962 -10.7962 -10.7772  -8.2265  -7.4798
    -5.9739  -5.9739  -5.6774  -5.6482   4.4412   4.4412   4.5226   6.5940
     7.5088   7.9026   7.9026   8.0226   8.0226  14.0549  15.7557  15.9094
    16.5817  17.5334  17.5334  18.6655  18.7343  21.1441  22.2668  22.2668

          k = 0.0250 0.5000 0.0000 (  3676 PWs)   bands (ev):

   -24.0394 -11.5853 -11.2946 -10.7964 -10.7962 -10.7774  -8.2250  -7.4815
    -5.9738  -5.9726  -5.6834  -5.6493   4.2702   4.4436   4.7005   6.5914
     7.4958   7.9001   7.9212   8.0200   8.0235  14.0614  15.7635  15.9139
    16.5878  17.5203  17.5337  18.6767  18.7308  21.1088  22.1167  22.2469

          k = 0.0500 0.5000 0.0000 (  3684 PWs)   bands (ev):

   -24.0392 -11.5813 -11.2919 -10.7969 -10.7963 -10.7777  -8.2202  -7.4865
    -5.9734  -5.9687  -5.7014  -5.6521   4.0724   4.4506   4.9187   6.5832
     7.4639   7.8928   7.9706   8.0121   8.0262  14.0807  15.7864  15.9278
    16.6058  17.4828  17.5348  18.7082  18.7203  21.0122  21.8941  22.1887

          k = 0.0750 0.5000 0.0000 (  3672 PWs)   bands (ev):

   -24.0389 -11.5750 -11.2873 -10.7972 -10.7961 -10.7779  -8.2122  -7.4946
    -5.9728  -5.9623  -5.7314  -5.6564   3.8826   4.4623   5.1418   6.5692
     7.4253   7.8809   7.9991   8.0310   8.0388  14.1132  15.8233  15.9520
    16.6355  17.4253  17.5365  18.7029  18.7554  20.8741  21.6732  22.0972

          k = 0.1000 0.5000 0.0000 (  3678 PWs)   bands (ev):

   -24.0385 -11.5665 -11.2807 -10.7980 -10.7961 -10.7786  -8.2009  -7.5056
    -5.9719  -5.9538  -5.7729  -5.6621   3.7025   4.4783   5.3670   6.5484
     7.3889   7.8648   7.9813   8.0377   8.1172  14.1587  15.8715  15.9885
    16.6760  17.3532  17.5389  18.6788  18.8125  20.7125  21.4612  21.9786

          k = 0.1250 0.5000 0.0000 (  3682 PWs)   bands (ev):

   -24.0381 -11.5565 -11.2720 -10.7989 -10.7960 -10.7795  -8.1865  -7.5192
    -5.9709  -5.9433  -5.8252  -5.6691   3.5330   4.4985   5.5921   6.5205
     7.3594   7.8448   7.9589   8.0464   8.2010  14.2177  15.9260  16.0414
    16.7264  17.2714  17.5419  18.6482  18.8735  20.5403  21.2601  21.8403

          k = 0.1500 0.5000 0.0000 (  3688 PWs)   bands (ev):

   -24.0375 -11.5454 -11.2609 -10.7999 -10.7958 -10.7805  -8.1687  -7.5348
    -5.9697  -5.9312  -5.8874  -5.6772   3.3747   4.5224   5.8148   6.4856
     7.3394   7.8217   7.9323   8.0572   8.2872  14.2902  15.9815  16.1152
    16.7857  17.1842  17.5454  18.6114  18.9327  20.3659  21.0707  21.6896

          k = 0.1750 0.5000 0.0000 (  3680 PWs)   bands (ev):

   -24.0369 -11.5335 -11.2472 -10.8009 -10.7956 -10.7816  -8.1477  -7.5521
    -5.9683  -5.9584  -5.9180  -5.6864   3.2280   4.5497   6.0325   6.4446
     7.3292   7.7959   7.9021   8.0704   8.3739  14.3763  16.0362  16.2101
    16.8523  17.0948  17.5494  18.5689  18.9842  20.1950  20.8936  21.5336

          k = 0.2000 0.5000 0.0000 (  3692 PWs)   bands (ev):

   -24.0362 -11.5219 -11.2312 -10.8021 -10.7956 -10.7829  -8.1234  -7.5705
    -6.0372  -5.9668  -5.9039  -5.6963   3.0929   4.5799   6.2426   6.3987
     7.3281   7.7683   7.8686   8.0861   8.4597  14.4762  16.0915  16.3232
    16.9248  17.0060  17.5538  18.5212  19.0216  20.0319  20.7291  21.3800

          k = 0.2250 0.5000 0.0000 (  3692 PWs)   bands (ev):

   -24.0355 -11.5106 -11.2127 -10.8032 -10.7954 -10.7843  -8.0958  -7.5895
    -6.1225  -5.9652  -5.8893  -5.7068   2.9697   4.6123   6.3499   6.4426
     7.3346   7.7395   7.8327   8.1046   8.5433  14.5895  16.1485  16.4512
    16.9203  17.0013  17.5585  18.4691  19.0377  19.8795  20.5774  21.2368

          k = 0.2500 0.5000 0.0000 (  3712 PWs)   bands (ev):

   -24.0348 -11.5004 -11.1921 -10.8047 -10.7954 -10.7858  -8.0649  -7.6087
    -6.2128  -5.9636  -5.8747  -5.7175   2.8581   4.6463   6.2998   6.6298
     7.3472   7.7103   7.7951   8.1259   8.6236  14.7159  16.2075  16.5913
    16.8400  17.0803  17.5634  18.4139  19.0249  19.7403  20.4386  21.1121

          k = 0.2750 0.5000 0.0000 (  3686 PWs)   bands (ev):

   -24.0340 -11.4909 -11.1696 -10.8057 -10.7951 -10.7870  -8.0308  -7.6276
    -6.3066  -5.9620  -5.8604  -5.7283   2.7583   4.6812   6.2503   6.8017
     7.3640   7.6815   7.7567   8.1504   8.6997  14.8544  16.2681  16.7404
    16.7674  17.1597  17.5683  18.3577  18.9765  19.6161  20.3130  21.0128

          k = 0.3000 0.5000 0.0000 (  3684 PWs)   bands (ev):

   -24.0333 -11.4828 -11.1464 -10.8068 -10.7949 -10.7883  -7.9938  -7.6458
    -6.4022  -5.9604  -5.8467  -5.7389   2.6698   4.7161   6.2027   6.9560
     7.3835   7.6536   7.7182   8.1782   8.7707  15.0030  16.3294  16.7052
    16.8945  17.2375  17.5732  18.3034  18.8883  19.5080  20.2004  20.9431

          k = 0.3250 0.5000 0.0000 (  3688 PWs)   bands (ev):

   -24.0327 -11.4759 -11.1232 -10.8079 -10.7948 -10.7895  -7.9541  -7.6628
    -6.4978  -5.9589  -5.8339  -5.7490   2.5925   4.7501   6.1582   7.0907
     7.4041   7.6274   7.6807   8.2088   8.8357  15.1588  16.3904  16.6567
    17.0481  17.3120  17.5780  18.2559  18.7609  19.4168  20.1011  20.9024

          k = 0.3500 0.5000 0.0000 (  3688 PWs)   bands (ev):

   -24.0320 -11.4702 -11.1006 -10.8089 -10.7947 -10.7907  -7.9123  -7.6783
    -6.5915  -5.9575  -5.8222  -5.7584   2.5262   4.7822   6.1178   7.2050
     7.4246   7.6034   7.6453   8.2415   8.8938  15.3169  16.4498  16.6268
    17.1926  17.3810  17.5824  18.2221  18.5991  19.3431  20.0150  20.8861

          k = 0.3750 0.5000 0.0000 (  3688 PWs)   bands (ev):

   -24.0315 -11.4655 -11.0796 -10.8099 -10.7945 -10.7917  -7.8696  -7.6919
    -6.6808  -5.9563  -5.8120  -5.7667   2.4706   4.8116   6.0823   7.2987
     7.4438   7.5822   7.6130   8.2750   8.9445  15.4693  16.5061  16.6219
    17.3165  17.4430  17.5864  18.2110  18.4104  19.2870  19.9422  20.8872

          k = 0.4000 0.5000 0.0000 (  3680 PWs)   bands (ev):

   -24.0310 -11.4618 -11.0611 -10.8105 -10.7944 -10.7924  -7.8274  -7.7034
    -6.7630  -5.9552  -5.8033  -5.7739   2.4254   4.8373   6.0525   7.3723
     7.4609   7.5642   7.5849   8.3071   8.9869  15.6055  16.5573  16.6508
    17.4078  17.4962  17.5899  18.2033  18.2302  19.2488  19.8826  20.8985

          k = 0.4250 0.5000 0.0000 (  3676 PWs)   bands (ev):

   -24.0306 -11.4590 -11.0458 -10.8110 -10.7943 -10.7932  -7.7881  -7.7127
    -6.8345  -5.9544  -5.7964  -5.7797   2.3906   4.8583   6.0289   7.4272
     7.4750   7.5497   7.5619   8.3355   9.0205  15.7139  16.6013  16.7210
    17.4617  17.5391  17.5927  17.9870  18.2775  19.2283  19.8362  20.9138

          k = 0.4500 0.5000 0.0000 (  3676 PWs)   bands (ev):

   -24.0303 -11.4570 -11.0345 -10.8114 -10.7942 -10.7937  -7.7552  -7.7194
    -6.8912  -5.9538  -5.7914  -5.7839   2.3658   4.8739   6.0117   7.4650
     7.4855   7.5392   7.5448   8.3579   9.0449  15.7877  16.6355  16.8313
    17.4859  17.5707  17.5948  17.7733  18.3359  19.2232  19.8031  20.9281

          k = 0.4750 0.5000 0.0000 (  3672 PWs)   bands (ev):

   -24.0302 -11.4559 -11.0273 -10.8116 -10.7942 -10.7941  -7.7328  -7.7234
    -6.9280  -5.9534  -5.7884  -5.7865   2.3509   4.8836   6.0013   7.4871
     7.4919   7.5329   7.5341   8.3721   9.0597  15.8284  16.6574  16.9595
    17.4935  17.5857  17.5900  17.5961  18.3823  19.2272  19.7832  20.9381

          k = 0.5000 0.5000 0.0000 (  3676 PWs)   bands (ev):

   -24.0301 -11.4555 -11.0251 -10.8116 -10.7942 -10.7942  -7.7248  -7.7248
    -6.9409  -5.9533  -5.7874  -5.7874   2.3460   4.8868   5.9978   7.4942
     7.4942   7.5307   7.5307   8.3770   9.0646  15.8411  16.6650  17.0311
    17.4949  17.4949  17.5965  17.5965  18.3998  19.2303  19.7766  20.9416

          k = 0.4750 0.4750 0.0000 (  3666 PWs)   bands (ev):

   -24.0302 -11.4562 -11.0295 -10.8115 -10.7941 -10.7940  -7.7482  -7.7141
    -6.9157  -5.9535  -5.7882  -5.7868   2.3559   4.8803   6.0048   7.4808
     7.4888   7.5341   7.5386   8.3673   9.0549  15.8146  16.6477  16.9073
    17.5122  17.5889  17.5903  17.6383  18.3659  19.2249  19.7898  20.9769

          k = 0.4500 0.4500 0.0000 (  3674 PWs)   bands (ev):

   -24.0306 -11.4585 -11.0437 -10.8110 -10.7938 -10.7937  -7.8102  -7.6824
    -6.8485  -5.9543  -5.7906  -5.7852   2.3852   4.8614   6.0257   7.4389
     7.4735   7.5436   7.5626   8.3397   9.0273  15.7189  16.5693  16.7652
    17.5485  17.5660  17.5715  17.8658  18.2887  19.2307  19.8297  21.0741

          k = 0.4250 0.4250 0.0000 (  3678 PWs)   bands (ev):

   -24.0311 -11.4622 -11.0662 -10.8102 -10.7934 -10.7932  -7.8951  -7.6308
    -6.7557  -5.9556  -5.7943  -5.7826   2.4335   4.8314   6.0606   7.3646
     7.4512   7.5596   7.6005   8.2993   8.9862  15.5275  16.4407  16.7239
    17.5285  17.5400  17.5459  18.0279  18.2442  19.3059  19.8965  21.2139

          k = 0.4000 0.4000 0.0000 (  3666 PWs)   bands (ev):

   -24.0319 -11.4672 -11.0958 -10.8090 -10.7927 -10.7924  -7.9902  -7.5607
    -6.6506  -5.9574  -5.7988  -5.7789   2.4998   4.7926   6.1095   7.2531
     7.4257   7.5817   7.6500   8.2535   8.9366  15.2487  16.3250  16.7256
    17.4337  17.4770  17.4958  18.0709  18.3189  19.5001  19.9905  21.3747

          k = 0.3750 0.3750 0.0000 (  3682 PWs)   bands (ev):

   -24.0329 -11.4737 -11.1316 -10.8075 -10.7922 -10.7917  -8.0879  -7.4742
    -6.5424  -5.9597  -5.8034  -5.7745   2.5831   4.7473   6.1723   7.1017
     7.4020   7.6094   7.7082   8.2099   8.8822  14.9158  16.2134  16.7418
    17.2266  17.4124  17.4386  18.0149  18.5062  19.8010  20.1121  21.5375

          k = 0.3500 0.3500 0.0000 (  3686 PWs)   bands (ev):

   -24.0340 -11.4812 -11.1719 -10.8055 -10.7913 -10.7907  -8.1836  -7.3736
    -6.4373  -5.9626  -5.8072  -5.7692   2.6818   4.6981   6.2492   6.9127
     7.3851   7.6422   7.7723   8.1737   8.8259  14.5539  16.0927  16.7497
    16.9731  17.3360  17.3690  17.9087  18.7603  20.1684  20.2611  21.6869

          k = 0.3250 0.3250 0.0000 (  3692 PWs)   bands (ev):

   -24.0353 -11.4898 -11.2148 -10.8034 -10.7904 -10.7898  -8.2744  -7.2614
    -6.3399  -5.9660  -5.8091  -5.7633   2.7944   4.6472   6.3404   6.6922
     7.3792   7.6796   7.8394   8.1467   8.7690  14.1764  15.9603  16.6999
    16.7268  17.2495  17.2876  17.7864  19.0531  20.4370  20.5732  21.8125

          k = 0.3000 0.3000 0.0000 (  3686 PWs)   bands (ev):

   -24.0367 -11.4992 -11.2592 -10.8010 -10.7892 -10.7885  -8.3587  -7.1401
    -6.2539  -5.9699  -5.8077  -5.7569   2.9191   4.5967   6.4460   6.4490
     7.3880   7.7208   7.9071   8.1285   8.7125  13.7905  15.8179  16.4206
    16.6585  17.1548  17.1959  17.6634  19.3686  20.6379  20.9962  21.9126

          k = 0.2750 0.2750 0.0000 (  3690 PWs)   bands (ev):

   -24.0382 -11.5093 -11.3039 -10.7985 -10.7879 -10.7872  -8.4356  -7.0126
    -6.1825  -5.9742  -5.8016  -5.7503   3.0538   4.5482   6.1921   6.5664
     7.4136   7.7650   7.9732   8.1179   8.6570  13.4005  15.6677  16.1430
    16.5426  17.0538  17.0956  17.5397  19.6952  20.8601  21.4111  22.0052

          k = 0.2500 0.2500 0.0000 (  3708 PWs)   bands (ev):

   -24.0398 -11.5198 -11.3478 -10.7960 -10.7868 -10.7861  -8.5043  -6.8817
    -6.1272  -5.9788  -5.7901  -5.7434   3.1965   4.5028   5.9295   6.7019
     7.4566   7.8112   8.0362   8.1133   8.6034  13.0097  15.5124  15.8727
    16.3882  16.9490  16.9892  17.4075  20.0238  21.0965  21.7348  22.1732

          k = 0.2250 0.2250 0.0000 (  3696 PWs)   bands (ev):

   -24.0413 -11.5303 -11.3896 -10.7931 -10.7853 -10.7848  -8.5648  -6.7500
    -6.0876  -5.9837  -5.7739  -5.7366   3.3446   4.4615   5.6691   6.8524
     7.5163   7.8585   8.0948   8.1134   8.5526  12.6209  15.3541  15.6142
    16.2077  16.8428  16.8796  17.2606  20.3462  21.3340  21.8662  22.5193

          k = 0.2000 0.2000 0.0000 (  3709 PWs)   bands (ev):

   -24.0429 -11.5409 -11.4290 -10.7905 -10.7841 -10.7837  -8.6170  -6.6206
    -6.0614  -5.9887  -5.7553  -5.7299   3.4955   4.4247   5.4171   7.0176
     7.5905   7.9056   8.1166   8.1480   8.5057  12.2369  15.1950  15.3712
    16.0124  16.7380  16.7698  17.0996  20.6552  21.5519  21.9085  22.8190

          k = 0.1750 0.1750 0.0000 (  3707 PWs)   bands (ev):

   -24.0443 -11.5509 -11.4649 -10.7878 -10.7831 -10.7824  -8.6612  -6.4965
    -6.0446  -5.9936  -5.7374  -5.7235   3.6458   4.3928   5.1796   7.1966
     7.6756   7.9513   8.1218   8.1953   8.4638  11.8607  15.0378  15.1473
    15.8108  16.6371  16.6633  16.9315  20.9442  21.7258  21.9291  22.9821

          k = 0.1500 0.1500 0.0000 (  3711 PWs)   bands (ev):

   -24.0457 -11.5603 -11.4970 -10.7854 -10.7819 -10.7814  -8.6978  -6.3807
    -6.0340  -5.9983  -5.7225  -5.7176   3.7914   4.3657   4.9617   7.3874
     7.7672   7.9943   8.1272   8.2364   8.4279  11.4961  14.8856  14.9456
    15.6104  16.5430  16.5633  16.7666  21.2069  21.8435  21.9440  23.2300

          k = 0.1250 0.1250 0.0000 (  3723 PWs)   bands (ev):

   -24.0469 -11.5689 -11.5250 -10.7832 -10.7809 -10.7805  -8.7274  -6.2762
    -6.0269  -6.0027  -5.7124  -5.7116   3.9279   4.3434   4.7683   7.5866
     7.8603   8.0334   8.1317   8.2710   8.3990  11.1474  14.7424  14.7691
    15.4188  16.4581  16.4727  16.6152  21.4381  21.9135  21.9569  23.5475

          k = 0.1000 0.1000 0.0000 (  3741 PWs)   bands (ev):

   -24.0480 -11.5765 -11.5484 -10.7816 -10.7800 -10.7797  -8.7505  -6.1860
    -6.0220  -6.0065  -5.7079  -5.7047   4.0501   4.3257   4.6036   7.7885
     7.9495   8.0673   8.1343   8.2992   8.3775  10.8209  14.6129  14.6204
    15.2444  16.3850  16.3946  16.4850  21.6332  21.9527  21.9686  23.9075

          k = 0.0750 0.0750 0.0000 (  3731 PWs)   bands (ev):

   -24.0489 -11.5824 -11.5665 -10.7800 -10.7792 -10.7789  -8.7678  -6.1126
    -6.0185  -6.0096  -5.7042  -5.7011   4.1527   4.3123   4.4714   7.9778
     8.0351   8.0951   8.1349   8.3210   8.3631  10.5264  14.5021  14.5029
    15.0965  16.3257  16.3312  16.3812  21.7886  21.9743  21.9784  24.2788

          k = 0.0500 0.0500 0.0000 (  3739 PWs)   bands (ev):

   -24.0495 -11.5870 -11.5798 -10.7790 -10.7785 -10.7784  -8.7797  -6.0584
    -6.0160  -6.0120  -5.7014  -5.6996   4.2305   4.3030   4.3745   8.0773
     8.1156   8.1341   8.1729   8.3365   8.3544  10.2798  14.4160  14.4182
    14.9838  16.2820  16.2844  16.3063  21.9014  21.9858  21.9861  24.6222

          k = 0.0250 0.0250 0.0000 (  3743 PWs)   bands (ev):

   -24.0499 -11.5897 -11.5879 -10.7782 -10.7781 -10.7781  -8.7866  -6.0251
    -6.0144  -6.0134  -5.6998  -5.6992   4.2791   4.2975   4.3155   8.1188
     8.1286   8.1326   8.2999   8.3457   8.3501  10.1078  14.3638  14.3646
    14.9132  16.2552  16.2558  16.2612  21.9699  21.9911  21.9911  24.8799

          k = 0.0000 0.0000 0.0000 (  3743 PWs)   bands (ev):

   -24.0500 -11.5906 -11.5906 -10.7780 -10.7780 -10.7780  -8.7889  -6.0139
    -6.0139  -6.0139  -5.6992  -5.6992   4.2957   4.2957   4.2957   8.1325
     8.1325   8.1325   8.3488   8.3488   8.3488  10.0444  14.3462  14.3462
    14.8892  16.2462  16.2462  16.2462  21.9928  21.9928  21.9928  24.9788

          k = 0.0250 0.0250 0.0250 (  3743 PWs)   bands (ev):

   -24.0498 -11.5879 -11.5879 -10.7783 -10.7782 -10.7782  -8.7855  -6.0248
    -6.0248  -6.0089  -5.6997  -5.6997   4.2619   4.3164   4.3164   8.1166
     8.1166   8.1380   8.2747   8.3486   8.3487  10.1380  14.3731  14.3731
    14.9250  16.2627  16.2627  16.2638  21.9691  21.9691  22.0008  24.8124

          k = 0.0500 0.0500 0.0500 (  3737 PWs)   bands (ev):

   -24.0492 -11.5798 -11.5798 -10.7791 -10.7789 -10.7789  -8.7750  -6.0566
    -6.0566  -5.9943  -5.7018  -5.7018   4.1632   4.3783   4.3783   8.0694
     8.0694   8.0895   8.1545   8.3495   8.3495  10.3813  14.4515  14.4515
    15.0284  16.3113  16.3113  16.3175  21.8986  21.8986  22.0224  24.4002

          k = 0.0750 0.0750 0.0750 (  3731 PWs)   bands (ev):

   -24.0483 -11.5664 -11.5664 -10.7801 -10.7800 -10.7800  -8.7571  -6.1069
    -6.1069  -5.9715  -5.7069  -5.7069   4.0068   4.4800   4.4800   7.8529
     7.9939   7.9939   8.1817   8.3535   8.3535  10.7133  14.5754  14.5754
    15.1871  16.3895  16.3895  16.4106  21.7836  21.7836  22.0491  23.8793

          k = 0.1000 0.1000 0.1000 (  3707 PWs)   bands (ev):

   -24.0470 -11.5477 -11.5477 -10.7813 -10.7813 -10.7813  -8.7310  -6.1731
    -6.1731  -5.9428  -5.7163  -5.7163   3.8026   4.6197   4.6197   7.6029
     7.8961   7.8961   8.2191   8.3617   8.3617  11.0947  14.7361  14.7361
    15.3823  16.4924  16.4924  16.5486  21.6281  21.6281  22.0592  23.3429

          k = 0.1250 0.1250 0.1250 (  3707 PWs)   bands (ev):

   -24.0454 -11.5243 -11.5243 -10.7833 -10.7832 -10.7830  -8.6960  -6.2524
    -6.2524  -5.9108  -5.7306  -5.7306   3.5614   4.7947   4.7947   7.3596
     7.7835   7.7835   8.2660   8.3747   8.3747  11.5040  14.9238  14.9238
    15.5908  16.6125  16.6125  16.7373  21.4386  21.4387  21.9939  22.8772

          k = 0.1500 0.1500 0.1500 (  3710 PWs)   bands (ev):

   -24.0436 -11.4963 -11.4963 -10.7854 -10.7854 -10.7850  -8.6512  -6.3422
    -6.3422  -5.8788  -5.7502  -5.7502   3.2932   5.0019   5.0019   7.1347
     7.6635   7.6635   8.3214   8.3929   8.3929  11.9286  15.1285  15.1285
    15.7917  16.7394  16.7394  16.9788  21.2249  21.2249  21.7427  22.5973

          k = 0.1750 0.1750 0.1750 (  3689 PWs)   bands (ev):

   -24.0416 -11.4636 -11.4636 -10.7877 -10.7877 -10.7873  -8.5960  -6.4401
    -6.4401  -5.8497  -5.7746  -5.7746   3.0069   5.2375   5.2375   6.9362
     7.5427   7.5427   8.3846   8.4167   8.4167  12.3591  15.3406  15.3406
    15.9726  16.8602  16.8602  17.2654  20.9991  20.9991  21.3277  22.4752

          k = 0.2000 0.2000 0.2000 (  3686 PWs)   bands (ev):

   -24.0395 -11.4273 -11.4273 -10.7903 -10.7903 -10.7895  -8.5300  -6.5437
    -6.5437  -5.8265  -5.8035  -5.8035   2.7096   5.4973   5.4973   6.7695
     7.4265   7.4265   8.4465   8.4466   8.4538  12.7876  15.5491  15.5491
[...]
     7.2178   7.2178   8.6916   8.6916   8.8366  14.4850  15.8061  15.8061
    16.8104  17.3255  17.3255  18.6063  19.4054  19.9992  19.9992  21.6612

          k = 0.3500 0.3500 0.3500 (  3701 PWs)   bands (ev):

   -24.0269 -11.1692 -11.1692 -10.8087 -10.8087 -10.8060  -7.9305  -7.1591
    -7.1591  -6.0193  -6.0193  -5.8974   1.0108   6.4895   6.8066   6.8066
     7.4420   7.4420   8.7585   8.7585   8.9073  14.6174  15.5990  15.5990
    17.0272  17.4691  17.4691  18.4976  19.4108  19.8916  19.8916  21.5905

          k = 0.3750 0.3750 0.3750 (  3683 PWs)   bands (ev):

   -24.0253 -11.1294 -11.1294 -10.8111 -10.8111 -10.8086  -7.8130  -7.2406
    -7.2406  -6.0516  -6.0516  -5.9439   0.7903   6.5322   6.7877   6.7877
     7.6993   7.6993   8.8306   8.8306   8.9713  14.6673  15.3548  15.3548
    17.2896  17.6159  17.6159  18.3432  19.4477  19.7861  19.7861  21.5596

          k = 0.4000 0.4000 0.4000 (  3695 PWs)   bands (ev):

   -24.0239 -11.0943 -11.0943 -10.8134 -10.8134 -10.8118  -7.7004  -7.3105
    -7.3105  -6.0798  -6.0798  -5.9950   0.6014   6.5825   6.7631   6.7631
     7.9382   7.9382   8.9070   8.9070   9.0266  14.6588  15.1050  15.1050
    17.5754  17.7500  17.7500  18.1908  19.4771  19.6855  19.6855  21.5555

          k = 0.4250 0.4250 0.4250 (  3677 PWs)   bands (ev):

   -24.0228 -11.0650 -11.0650 -10.8150 -10.8150 -10.8140  -7.5990  -7.3672
    -7.3672  -6.1027  -6.1027  -6.0461   0.4489   6.6327   6.7416   6.7416
     8.1360   8.1360   8.9854   8.9854   9.0717  14.6202  14.8762  14.8762
    17.8510  17.8611  17.8611  18.0638  19.4893  19.5966  19.5966  21.5641

          k = 0.4500 0.4500 0.4500 (  3680 PWs)   bands (ev):

   -24.0221 -11.0431 -11.0431 -10.8163 -10.8163 -10.8158  -7.5167  -7.4089
    -7.4089  -6.1197  -6.1197  -6.0910   0.3368   6.6750   6.7258   6.7258
     8.2795   8.2795   9.0584   9.0584   9.1050  14.5755  14.6917  14.6917
    17.9430  17.9430  17.9462  18.1095  19.4856  19.5270  19.5270  21.5751

          k = 0.4750 0.4750 0.4750 (  3648 PWs)   bands (ev):

   -24.0216 -11.0291 -11.0291 -10.8168 -10.8168 -10.8167  -7.4622  -7.4345
    -7.4345  -6.1302  -6.1302  -6.1223   0.2682   6.7032   6.7162   6.7162
     8.3645   8.3645   9.1123   9.1124   9.1254  14.5420  14.5715  14.5715
    17.8898  17.9929  17.9929  18.2702  19.4741  19.4829  19.4829  21.5829

          k = 0.5000 0.5000 0.5000 (  3648 PWs)   bands (ev):

   -24.0214 -11.0245 -11.0245 -10.8171 -10.8171 -10.8171  -7.4431  -7.4431
    -7.4431  -6.1337  -6.1337  -6.1337   0.2451   6.7130   6.7130   6.7130
     8.3923   8.3923   9.1323   9.1323   9.1323  14.5297  14.5297  14.5297
    17.8694  18.0095  18.0095  18.3298  19.4678  19.4678  19.4678  21.5856

          k = 0.4750 0.5000 0.4750 (  3648 PWs)   bands (ev):

   -24.0215 -11.0291 -11.0260 -10.8170 -10.8169 -10.8168  -7.4509  -7.4474
    -7.4323  -6.1327  -6.1286  -6.1274   0.2606   6.7058   6.7145   6.7164
     8.3647   8.3830   9.1172   9.1195   9.1286  14.5405  14.5528  14.5601
    17.8830  17.9907  18.0063  18.2899  19.4645  19.4786  19.4845  21.5761

          k = 0.4500 0.5000 0.4500 (  3682 PWs)   bands (ev):

   -24.0218 -11.0432 -11.0308 -10.8168 -10.8167 -10.8163  -7.4738  -7.4597
    -7.4003  -6.1299  -6.1138  -6.1094   0.3065   6.6847   6.7190   6.7264
     8.2810   8.3552   9.0751   9.0822   9.1176  14.5721  14.6202  14.6483
    17.9215  17.9353  17.9983  18.1794  19.4537  19.5044  19.5346  21.5468

          k = 0.4250 0.5000 0.4250 (  3676 PWs)   bands (ev):

   -24.0224 -11.0650 -11.0384 -10.8161 -10.8156 -10.8149  -7.5098  -7.4783
    -7.3480  -6.1252  -6.0907  -6.0815   0.3824   6.6520   6.7268   6.7428
     8.1415   8.3094   9.0149   9.0235   9.0991  14.6222  14.7273  14.7864
    17.8471  17.9557  18.0120  18.0185  19.4333  19.5325  19.6168  21.4964

          k = 0.4000 0.5000 0.4000 (  3676 PWs)   bands (ev):

   -24.0231 -11.0940 -11.0488 -10.8153 -10.8142 -10.8130  -7.5566  -7.5008
    -7.2768  -6.1187  -6.0612  -6.0469   0.4869   6.6106   6.7381   6.7648
     7.9499   8.2466   8.9456   8.9467   9.0731  14.6864  14.8669  14.9634
    17.7311  17.8284  17.9373  18.0929  19.3991  19.5534  19.7292  21.4233

          k = 0.3750 0.5000 0.3750 (  3680 PWs)   bands (ev):

   -24.0240 -11.1290 -11.0620 -10.8143 -10.8126 -10.8108  -7.6112  -7.5249
    -7.1889  -6.1108  -6.0271  -6.0087   0.6186   6.5644   6.7532   6.7907
     7.7146   8.1681   8.8577   8.8706   9.0393  14.7585  15.0301  15.1682
    17.5931  17.6283  17.9027  18.2017  19.3460  19.5629  19.8694  21.3273

          k = 0.3500 0.5000 0.3500 (  3680 PWs)   bands (ev):

   -24.0250 -11.1685 -11.0775 -10.8131 -10.8107 -10.8080  -7.6711  -7.5481
    -7.0863  -6.1014  -5.9903  -5.9702   0.7757   6.5176   6.7725   6.8181
     7.4463   8.0767   8.7597   8.7935   8.9977  14.8296  15.2072  15.3902
    17.4355  17.4395  17.8600  18.3279  19.2692  19.5614  20.0339  21.2102

          k = 0.3250 0.5000 0.3250 (  3676 PWs)   bands (ev):

   -24.0262 -11.2109 -11.0949 -10.8116 -10.8087 -10.8051  -7.7337  -7.5685
    -6.9716  -6.0908  -5.9522  -5.9344   0.9561   6.4743   6.7963   6.8427
     7.1557   7.9763   8.6571   8.7147   8.9482  14.8883  15.3879  15.6209
    17.2667  17.2758  17.8116  18.4674  19.1677  19.5515  20.2188  21.0761

          k = 0.3000 0.5000 0.3000 (  3672 PWs)   bands (ev):

   -24.0275 -11.2550 -11.1140 -10.8101 -10.8066 -10.8019  -7.7968  -7.5846
    -6.8474  -6.0793  -5.9141  -5.9035   1.1576   6.4381   6.8253   6.8527
     6.8569   7.8745   8.5537   8.6349   8.8906  14.9220  15.5618  15.8532
    17.1078  17.1369  17.7587  18.6146  19.0488  19.5365  20.4195  20.9315

          k = 0.2750 0.5000 0.2750 (  3680 PWs)   bands (ev):

   -24.0289 -11.2995 -11.1344 -10.8086 -10.8048 -10.7988  -7.8589  -7.5953
    -6.7164  -6.0672  -5.8796  -5.8767   1.3781   6.4119   6.5452   6.8489
     6.8596   7.7828   8.4523   8.5552   8.8250  14.9196  15.7187  16.0818
    16.9402  17.0574  17.6997  18.7396  18.9520  19.5190  20.6309  20.7859

          k = 0.2500 0.5000 0.2500 (  3708 PWs)   bands (ev):

   -24.0303 -11.3433 -11.1558 -10.8072 -10.8034 -10.7959  -7.9184  -7.6001
    -6.5815  -6.0548  -5.8638  -5.8409   1.6152   6.2404   6.3976   6.8025
     6.8999   7.7167   8.3555   8.4768   8.7516  14.8770  15.8494  16.3026
    16.7772  17.0311  17.6283  18.7100  19.0276  19.4981  20.6527  20.8478

          k = 0.2250 0.5000 0.2250 (  3706 PWs)   bands (ev):

   -24.0317 -11.3851 -11.1771 -10.8055 -10.8018 -10.7928  -7.9743  -7.5988
    -6.4454  -6.0422  -5.8566  -5.8071   1.8670   5.9446   6.3958   6.7055
     6.9463   7.6880   8.2654   8.4010   8.6711  14.7986  15.9472  16.5124
    16.6225  17.0504  17.5336  18.6167  19.2079  19.4679  20.5512  21.0649

          k = 0.2000 0.5000 0.2000 (  3708 PWs)   bands (ev):

   -24.0331 -11.4246 -11.1982 -10.8039 -10.8006 -10.7897  -8.0256  -7.5917
    -6.3114  -6.0300  -5.8579  -5.7757   2.1312   5.6630   6.4060   6.5574
     6.9991   7.6966   8.1837   8.3291   8.5838  14.6953  16.0089  16.4789
    16.7086  17.1015  17.4071  18.5553  19.4160  19.4165  20.5050  21.2772

          k = 0.1750 0.5000 0.1750 (  3712 PWs)   bands (ev):

   -24.0344 -11.4607 -11.2184 -10.8024 -10.7995 -10.7871  -8.0718  -7.5795
    -6.1825  -6.0183  -5.8668  -5.7472   2.4060   5.4007   6.3671   6.4266
     7.0584   7.7325   8.1119   8.2624   8.4907  14.5792  16.0349  16.3489
    16.8888  17.1696  17.2526  18.5379  19.3342  19.6431  20.5341  21.4796

          k = 0.1500 0.5000 0.1500 (  3708 PWs)   bands (ev):

   -24.0356 -11.4929 -11.2371 -10.8011 -10.7986 -10.7845  -8.1124  -7.5633
    -6.0619  -6.0075  -5.8819  -5.7218   2.6896   5.1621   6.1453   6.4549
     7.1237   7.7841   8.0508   8.2020   8.3931  14.4611  16.0284  16.2340
    17.0508  17.0870  17.2435  18.5550  19.2232  19.8863  20.6436  21.6678

          k = 0.1250 0.5000 0.1250 (  3694 PWs)   bands (ev):

   -24.0367 -11.5208 -11.2539 -10.7996 -10.7978 -10.7822  -8.1471  -7.5447
    -5.9978  -5.9528  -5.9012  -5.6999   2.9801   4.9518   5.9000   6.4874
     7.1948   7.8420   8.0011   8.1491   8.2926  14.3491  15.9940  16.1357
    16.9305  17.1927  17.3159  18.5915  19.0958  20.1421  20.8254  21.8373

          k = 0.1000 0.5000 0.1000 (  3698 PWs)   bands (ev):

   -24.0377 -11.5441 -11.2684 -10.7985 -10.7973 -10.7806  -8.1756  -7.5254
    -5.9895  -5.9222  -5.8583  -5.6816   3.2758   4.7733   5.6371   6.5203
     7.2702   7.8991   7.9626   8.1046   8.1913  14.2496  15.9390  16.0545
    16.7985  17.3122  17.3830  18.6344  18.9664  20.4044  21.0666  21.9841

          k = 0.0750 0.5000 0.0750 (  3680 PWs)   bands (ev):

   -24.0384 -11.5625 -11.2799 -10.7975 -10.7968 -10.7791  -8.1978  -7.5074
    -5.9828  -5.9423  -5.7813  -5.6671   3.5753   4.6305   5.3611   6.5502
     7.3477   7.9347   7.9495   8.0691   8.0925  14.1673  15.8742  15.9911
    16.6990  17.4075  17.4421  18.6748  18.8477  20.6625  21.3542  22.1040

          k = 0.0500 0.5000 0.0500 (  3680 PWs)   bands (ev):

   -24.0390 -11.5758 -11.2885 -10.7969 -10.7966 -10.7780  -8.2138  -7.4927
    -5.9779  -5.9590  -5.7243  -5.6567   3.8767   4.5262   5.0753   6.5737
     7.4225   7.9162   7.9889   8.0019   8.0433  14.1057  15.8136  15.9457
    16.6320  17.4770  17.4899  18.7069  18.7513  20.8976  21.6753  22.1931

          k = 0.0250 0.5000 0.0250 (  3676 PWs)   bands (ev):

   -24.0393 -11.5839 -11.2937 -10.7965 -10.7964 -10.7774  -8.2234  -7.4831
    -5.9749  -5.9700  -5.6893  -5.6504   4.1778   4.4626   4.7831   6.5888
     7.4833   7.9059   7.9313   8.0139   8.0278  14.0677  15.7710  15.9185
    16.5940  17.5192  17.5219  18.6878  18.7273  21.0750  22.0130  22.2482

          k = 0.0000 0.5000 0.0000 (  3668 PWs)   bands (ev):

   -24.0394 -11.5865 -11.2954 -10.7962 -10.7962 -10.7772  -8.2265  -7.4798
    -5.9739  -5.9739  -5.6774  -5.6482   4.4412   4.4412   4.5226   6.5940
     7.5088   7.9026   7.9026   8.0226   8.0226  14.0549  15.7557  15.9094
    16.5817  17.5334  17.5334  18.6655  18.7343  21.1441  22.2668  22.2668

          k = 0.5000 0.5000 0.0000 (  3676 PWs)   bands (ev):

   -24.0301 -11.4555 -11.0251 -10.8116 -10.7942 -10.7942  -7.7248  -7.7248
    -6.9409  -5.9533  -5.7874  -5.7874   2.3460   4.8868   5.9978   7.4942
     7.4942   7.5307   7.5307   8.3770   9.0646  15.8411  16.6650  17.0311
    17.4949  17.4949  17.5965  17.5965  18.3998  19.2303  19.7766  20.9416

          k = 0.5000 0.5000 0.0250 (  3676 PWs)   bands (ev):

   -24.0300 -11.4532 -11.0251 -10.8117 -10.7943 -10.7943  -7.7234  -7.7234
    -6.9436  -5.9544  -5.7892  -5.7892   2.3175   4.9226   6.0020   7.4274
     7.4274   7.6018   7.6018   8.3771   9.0650  15.8338  16.6706  17.0345
    17.3329  17.3329  17.7546  17.7546  18.3973  19.2201  19.7803  20.9452

          k = 0.5000 0.5000 0.0500 (  3660 PWs)   bands (ev):

   -24.0299 -11.4462 -11.0250 -10.8117 -10.7945 -10.7945  -7.7191  -7.7191
    -6.9515  -5.9578  -5.7947  -5.7947   2.2371   5.0248   6.0146   7.3499
     7.3499   7.6923   7.6923   8.3774   9.0662  15.8117  16.6873  17.0447
    17.1270  17.1270  17.9488  17.9488  18.3898  19.1901  19.7911  20.9557

          k = 0.5000 0.5000 0.0750 (  3668 PWs)   bands (ev):

   -24.0296 -11.4348 -11.0251 -10.8119 -10.7953 -10.7953  -7.7120  -7.7120
    -6.9646  -5.9634  -5.8038  -5.8038   2.1164   5.1813   6.0353   7.2763
     7.2763   7.7870   7.7870   8.3779   9.0682  15.7753  16.7150  16.9180
    16.9180  17.0624  18.1379  18.1379  18.3776  19.1415  19.8079  20.9731

          k = 0.5000 0.5000 0.1000 (  3680 PWs)   bands (ev):

   -24.0293 -11.4194 -11.0252 -10.8123 -10.7963 -10.7963  -7.7022  -7.7022
    -6.9826  -5.9710  -5.8162  -5.8162   1.9690   5.3780   6.0637   7.2074
     7.2074   7.8851   7.8851   8.3785   9.0709  15.7252  16.7087  16.7087
    16.7536  17.0883  18.3188  18.3189  18.3610  19.0765  19.8288  20.9968

          k = 0.5000 0.5000 0.1250 (  3680 PWs)   bands (ev):

   -24.0288 -11.3998 -11.0252 -10.8125 -10.7975 -10.7975  -7.6898  -7.6898
    -7.0053  -5.9804  -5.8319  -5.8319   1.8063   5.6029   6.0990   7.1433
     7.1433   7.9860   7.9860   8.3793   9.0743  15.6623  16.5010  16.5010
    16.8028  17.1233  18.3405  18.4896  18.4896  18.9976  19.8519  21.0263

          k = 0.5000 0.5000 0.1500 (  3672 PWs)   bands (ev):

   -24.0283 -11.3761 -11.0251 -10.8128 -10.7989 -10.7989  -7.6751  -7.6751
    -7.0322  -5.9914  -5.8505  -5.8505   1.6370   5.8463   6.1406   7.0841
     7.0841   8.0890   8.0890   8.3802   9.0783  15.5881  16.2960  16.2960
    16.8624  17.1678  18.3166  18.6485  18.6485  18.9076  19.8745  21.0610

          k = 0.5000 0.5000 0.1750 (  3676 PWs)   bands (ev):

   -24.0277 -11.3495 -11.0251 -10.8132 -10.8005 -10.8005  -7.6583  -7.6583
    -7.0631  -6.0037  -5.8716  -5.8716   1.4673   6.1007   6.1874   7.0296
     7.0296   8.1934   8.1934   8.3813   9.0828  15.5042  16.0952  16.0952
    16.9318  17.2223  18.2899  18.7939  18.7939  18.8096  19.8941  21.1003

          k = 0.5000 0.5000 0.2000 (  3668 PWs)   bands (ev):

   -24.0271 -11.3201 -11.0248 -10.8136 -10.8022 -10.8022  -7.6396  -7.6396
    -7.0971  -6.0169  -5.8950  -5.8950   1.3016   6.2384   6.3601   6.9800
     6.9800   8.2982   8.2982   8.3824   9.0877  15.4126  15.8999  15.8999
    17.0106  17.2868  18.2612  18.7064  18.9246  18.9246  19.9083  21.1435

          k = 0.5000 0.5000 0.2250 (  3680 PWs)   bands (ev):

   -24.0264 -11.2887 -11.0248 -10.8141 -10.8041 -10.8041  -7.6194  -7.6194
    -7.1338  -6.0308  -5.9201  -5.9201   1.1432   6.2923   6.6198   6.9350
     6.9350   8.3835   8.4026   8.4026   9.0928  15.3154  15.7114  15.7114
    17.0977  17.3611  18.2311  18.6008  19.0397  19.0397  19.9145  21.1897

          k = 0.5000 0.5000 0.2500 (  3672 PWs)   bands (ev):

   -24.0258 -11.2554 -11.0248 -10.8145 -10.8059 -10.8059  -7.5981  -7.5981
    -7.1723  -6.0449  -5.9465  -5.9465   0.9942   6.3480   6.8754   6.8946
     6.8946   8.3847   8.5055   8.5055   9.0981  15.2147  15.5311  15.5311
    17.1924  17.4448  18.2005  18.4954  19.1386  19.1386  19.9110  21.2382

          k = 0.5000 0.5000 0.2750 (  3672 PWs)   bands (ev):

   -24.0251 -11.2217 -11.0248 -10.8149 -10.8077 -10.8077  -7.5762  -7.5762
    -7.2118  -6.0590  -5.9735  -5.9735   0.8564   6.4041   6.8587   6.8587
     7.1228   8.3859   8.6055   8.6055   9.1034  15.1129  15.3606  15.3606
    17.2931  17.5371  18.1702  18.3925  19.2216  19.2216  19.8962  21.2880

          k = 0.5000 0.5000 0.3000 (  3700 PWs)   bands (ev):

   -24.0244 -11.1882 -11.0248 -10.8157 -10.8098 -10.8098  -7.5541  -7.5541
    -7.2513  -6.0727  -6.0005  -6.0005   0.7309   6.4591   6.8269   6.8269
     7.3585   8.3870   8.7013   8.7013   9.1085  15.0122  15.2013  15.2013
    17.3983  17.6369  18.1407  18.2945  19.2893  19.2893  19.8691  21.3381

          k = 0.5000 0.5000 0.3250 (  3692 PWs)   bands (ev):

   -24.0238 -11.1554 -11.0248 -10.8159 -10.8114 -10.8114  -7.5324  -7.5323
    -7.2897  -6.0856  -6.0269  -6.0269   0.6188   6.5117   6.7995   6.7995
     7.5785   8.3881   8.7916   8.7916   9.1135  14.9151  15.0549  15.0549
    17.5055  17.7429  18.1129  18.2032  19.3429  19.3429  19.8296  21.3871

          k = 0.5000 0.5000 0.3500 (  3688 PWs)   bands (ev):

   -24.0232 -11.1243 -11.0249 -10.8163 -10.8129 -10.8129  -7.5116  -7.5116
    -7.3259  -6.0974  -6.0519  -6.0519   0.5206   6.5606   6.7760   6.7760
     7.7792   8.3891   8.8746   8.8746   9.1180  14.8238  14.9231  14.9231
    17.6121  17.8528  18.0873  18.1205  19.3840  19.3840  19.7787  21.4337

          k = 0.5000 0.5000 0.3750 (  3688 PWs)   bands (ev):

   -24.0227 -11.0962 -11.0248 -10.8166 -10.8143 -10.8143  -7.4926  -7.4926
    -7.3590  -6.1080  -6.0748  -6.0748   0.4370   6.6044   6.7564   6.7564
     7.9571   8.3900   8.9486   8.9486   9.1221  14.7409  14.8076  14.8076
    17.7143  17.9639  18.0481  18.0647  19.4146  19.4146  19.7181  21.4764

          k = 0.5000 0.5000 0.4000 (  3692 PWs)   bands (ev):

   -24.0223 -11.0718 -11.0248 -10.8170 -10.8155 -10.8155  -7.4758  -7.4758
    -7.3878  -6.1170  -6.0948  -6.0948   0.3682   6.6420   6.7406   6.7406
     8.1085   8.3908   9.0121   9.0121   9.1256  14.6687  14.7102  14.7102
    17.8075  17.9875  18.0454  18.0720  19.4364  19.4364  19.6516  21.5137

          k = 0.5000 0.5000 0.4250 (  3668 PWs)   bands (ev):

   -24.0219 -11.0518 -11.0246 -10.8169 -10.8162 -10.8162  -7.4620  -7.4620
    -7.4113  -6.1242  -6.1113  -6.1113   0.3144   6.6724   6.7284   6.7284
     8.2303   8.3915   9.0636   9.0636   9.1285  14.6097  14.6324  14.6324
    17.8838  17.9433  18.0300  18.1713  19.4514  19.4514  19.5847  21.5442

          k = 0.5000 0.5000 0.4500 (  3656 PWs)   bands (ev):

   -24.0216 -11.0371 -11.0245 -10.8170 -10.8166 -10.8166  -7.4517  -7.4517
    -7.4287  -6.1294  -6.1235  -6.1235   0.2760   6.6947   6.7198   6.7198
     8.3195   8.3920   9.1014   9.1014   9.1306  14.5659  14.5757  14.5758
    17.8948  17.9594  18.0187  18.2539  19.4609  19.4609  19.5253  21.5669

          k = 0.5000 0.5000 0.4750 (  3648 PWs)   bands (ev):

   -24.0215 -11.0276 -11.0245 -10.8171 -10.8170 -10.8170  -7.4453  -7.4453
    -7.4395  -6.1326  -6.1311  -6.1311   0.2529   6.7084   6.7147   6.7147
     8.3740   8.3922   9.1245   9.1246   9.1319  14.5389  14.5412  14.5413
    17.8762  17.9963  18.0118  18.3098  19.4661  19.4662  19.4831  21.5809

          k = 0.5000 0.5000 0.5000 (  3648 PWs)   bands (ev):

   -24.0214 -11.0245 -11.0245 -10.8171 -10.8171 -10.8171  -7.4431  -7.4431
    -7.4431  -6.1337  -6.1337  -6.1337   0.2451   6.7130   6.7130   6.7130
     8.3923   8.3923   9.1323   9.1323   9.1323  14.5297  14.5297  14.5297
    17.8694  18.0095  18.0095  18.3298  19.4678  19.4678  19.4678  21.5856

     Writing output data file pwscf.save/
 
     init_run     :      0.59s CPU      0.66s WALL (       1 calls)
     electrons    :    798.56s CPU    811.76s WALL (       1 calls)

     Called by init_run:
     wfcinit      :      0.00s CPU      0.00s WALL (       1 calls)
     wfcinit:atom :      0.12s CPU      0.12s WALL (     122 calls)
     wfcinit:wfcr :      4.17s CPU      4.21s WALL (     122 calls)
     potinit      :      0.02s CPU      0.02s WALL (       1 calls)
     hinit0       :      0.50s CPU      0.52s WALL (       1 calls)

     Called by electrons:
     c_bands      :    798.56s CPU    811.76s WALL (       1 calls)
     v_of_rho     :      0.01s CPU      0.02s WALL (       1 calls)
     v_h          :      0.00s CPU      0.00s WALL (       1 calls)
     v_xc         :      0.01s CPU      0.02s WALL (       1 calls)
     newd         :      0.06s CPU      0.11s WALL (       1 calls)

     Called by c_bands:
     init_us_2    :      0.12s CPU      0.14s WALL (     122 calls)
     ccgdiagg     :    794.08s CPU    807.13s WALL (     122 calls)
     wfcrot       :      4.17s CPU      4.21s WALL (     122 calls)

     Called by sum_band:

     Called by *cgdiagg:
     h_psi        :    513.28s CPU    521.26s WALL (  414626 calls)
     s_psi        :    111.56s CPU    113.59s WALL (  829130 calls)
     cdiaghg      :      0.02s CPU      0.02s WALL (     122 calls)

     Called by h_psi:
     h_psi:pot    :    510.93s CPU    518.85s WALL (  414626 calls)
     h_psi:calbec :     73.25s CPU     74.23s WALL (  414626 calls)
     vloc_psi     :    364.21s CPU    370.25s WALL (  414626 calls)
     add_vuspsi   :     72.07s CPU     73.09s WALL (  414626 calls)
     h_1psi       :    572.85s CPU    581.66s WALL (  414504 calls)

     General routines
     calbec       :    126.14s CPU    128.23s WALL (  829130 calls)
     fft          :      0.00s CPU      0.02s WALL (      13 calls)
     fftw         :    309.90s CPU    314.89s WALL (  836816 calls)
     davcio       :      0.03s CPU      0.14s WALL (     244 calls)
 
 
     PWSCF        : 13m20.37s CPU    13m33.80s WALL

 
   This run was terminated on:  19: 8:17  19Jun2019            

=------------------------------------------------------------------------------=
   JOB DONE.
=------------------------------------------------------------------------------=
