
     Program PWSCF v.6.3MaX starts on 23Jun2019 at  6:19:40 

     This program is part of the open-source Quantum ESPRESSO suite
     for quantum simulation of materials; please cite
         "P. Giannozzi et al., J. Phys.:Condens. Matter 21 395502 (2009);
         "P. Giannozzi et al., J. Phys.:Condens. Matter 29 465901 (2017);
          URL http://www.quantum-espresso.org", 
     in publications or presentations arising from this work. More details at
     http://www.quantum-espresso.org/quote

     Serial version
     Waiting for input...
     Reading input from standard input
Warning: card &IONS ignored
Warning: card                 ION_DYNAMICS = 'BFGS' ignored
Warning: card / ignored
Warning: card &CELL ignored
Warning: card                        PRESS = 0.0D0 ignored
Warning: card               PRESS_CONV_THR = 0.1D0 ignored
Warning: card / ignored

     Current dimensions of program PWSCF are:
     Max number of different atomic species (ntypx) = 10
     Max number of k-points (npk) =  40000
     Max angular momentum in pseudopotentials (lmaxx) =  3

     Atomic positions and unit cell read from directory:
     ./SrSnO3/pwscf.save/

               file Sn.pbe-dn-rrkjus_psl.1.0.0.UPF: wavefunction(s)  5S 4D renormalized

     G-vector sticks info
     --------------------
     sticks:   dense  smooth     PW     G-vecs:    dense   smooth      PW
     Sum        1153    1153    349                29423    29423    4801


     Title: 
     SrSnO3                                                                     


     bravais-lattice index     =            0
     lattice parameter (alat)  =       7.7760  a.u.
     unit-cell volume          =     470.1771 (a.u.)^3
     number of atoms/cell      =            5
     number of atomic types    =            3
     number of electrons       =        42.00
     number of Kohn-Sham states=           32
     kinetic-energy cutoff     =      60.0000  Ry
     charge density cutoff     =     240.0000  Ry
     Exchange-correlation      = PBE ( 1  4  3  4 0 0)

     celldm(1)=   7.775957  celldm(2)=   0.000000  celldm(3)=   0.000000
     celldm(4)=   0.000000  celldm(5)=   0.000000  celldm(6)=   0.000000

     crystal axes: (cart. coord. in units of alat)
               a(1) = (   1.000000   0.000000   0.000000 )  
               a(2) = (   0.000000   1.000000   0.000000 )  
               a(3) = (   0.000000   0.000000   1.000000 )  

     reciprocal axes: (cart. coord. in units 2 pi/alat)
               b(1) = (  1.000000  0.000000  0.000000 )  
               b(2) = (  0.000000  1.000000  0.000000 )  
               b(3) = (  0.000000  0.000000  1.000000 )  


     PseudoPot. # 1 for Sr read from file:
     ../../pseudo/Sr.pbe-spn-rrkjus_psl.1.0.0.UPF
     MD5 check sum: b01d2975708dfe0128124e08a9218b05
     Pseudo is Ultrasoft + core correction, Zval = 10.0
     Generated using "atomic" code by A. Dal Corso v.6.3MaX
     Using radial grid of 1221 points,  6 beta functions with: 
                l(1) =   0
                l(2) =   0
                l(3) =   1
                l(4) =   1
                l(5) =   2
                l(6) =   2
     Q(r) pseudized with 0 coefficients 


     PseudoPot. # 2 for Sn read from file:
     ../../pseudo/Sn.pbe-dn-rrkjus_psl.1.0.0.UPF
     MD5 check sum: 3003b82f74bfde8c3712ca6ff28e1dc2
     Pseudo is Ultrasoft + core correction, Zval = 14.0
     Generated using "atomic" code by A. Dal Corso v.6.3MaX
     Using radial grid of 1243 points,  6 beta functions with: 
                l(1) =   0
                l(2) =   0
                l(3) =   1
                l(4) =   1
                l(5) =   2
                l(6) =   2
     Q(r) pseudized with 0 coefficients 


     PseudoPot. # 3 for O  read from file:
     ../../pseudo/O.pbe-n-rrkjus_psl.1.0.0.UPF
     MD5 check sum: 0ab64894fae4206cf37bef81a8e22c07
     Pseudo is Ultrasoft + core correction, Zval =  6.0
     Generated using "atomic" code by A. Dal Corso v.6.3MaX
     Using radial grid of 1095 points,  4 beta functions with: 
                l(1) =   0
                l(2) =   0
                l(3) =   1
                l(4) =   1
     Q(r) pseudized with 0 coefficients 


     atomic species   valence    mass     pseudopotential
        Sr            10.00    87.62000     Sr( 1.00)
        Sn            14.00   118.71000     Sn( 1.00)
        O              6.00    15.99940     O ( 1.00)

     48 Sym. Ops., with inversion, found


                                    s                        frac. trans.

      isym =  1     identity                                     

 cryst.   s( 1) = (     1          0          0      )
                  (     0          1          0      )
                  (     0          0          1      )

 cart.    s( 1) = (  1.0000000  0.0000000  0.0000000 )
                  (  0.0000000  1.0000000  0.0000000 )
                  (  0.0000000  0.0000000  1.0000000 )


      isym =  2     180 deg rotation - cart. axis [0,0,1]        

 cryst.   s( 2) = (    -1          0          0      )
                  (     0         -1          0      )
                  (     0          0          1      )

 cart.    s( 2) = ( -1.0000000  0.0000000  0.0000000 )
                  (  0.0000000 -1.0000000  0.0000000 )
                  (  0.0000000  0.0000000  1.0000000 )


      isym =  3     180 deg rotation - cart. axis [0,1,0]        

 cryst.   s( 3) = (    -1          0          0      )
                  (     0          1          0      )
                  (     0          0         -1      )

 cart.    s( 3) = ( -1.0000000  0.0000000  0.0000000 )
                  (  0.0000000  1.0000000  0.0000000 )
                  (  0.0000000  0.0000000 -1.0000000 )


      isym =  4     180 deg rotation - cart. axis [1,0,0]        

 cryst.   s( 4) = (     1          0          0      )
                  (     0         -1          0      )
                  (     0          0         -1      )

 cart.    s( 4) = (  1.0000000  0.0000000  0.0000000 )
                  (  0.0000000 -1.0000000  0.0000000 )
                  (  0.0000000  0.0000000 -1.0000000 )


      isym =  5     180 deg rotation - cart. axis [1,1,0]        

 cryst.   s( 5) = (     0          1          0      )
                  (     1          0          0      )
                  (     0          0         -1      )

 cart.    s( 5) = (  0.0000000  1.0000000  0.0000000 )
                  (  1.0000000  0.0000000  0.0000000 )
                  (  0.0000000  0.0000000 -1.0000000 )


      isym =  6     180 deg rotation - cart. axis [1,-1,0]       

 cryst.   s( 6) = (     0         -1          0      )
                  (    -1          0          0      )
                  (     0          0         -1      )

 cart.    s( 6) = (  0.0000000 -1.0000000  0.0000000 )
                  ( -1.0000000  0.0000000  0.0000000 )
                  (  0.0000000  0.0000000 -1.0000000 )


      isym =  7      90 deg rotation - cart. axis [0,0,-1]       

 cryst.   s( 7) = (     0         -1          0      )
                  (     1          0          0      )
                  (     0          0          1      )

 cart.    s( 7) = (  0.0000000  1.0000000  0.0000000 )
                  ( -1.0000000  0.0000000  0.0000000 )
                  (  0.0000000  0.0000000  1.0000000 )


      isym =  8      90 deg rotation - cart. axis [0,0,1]        

 cryst.   s( 8) = (     0          1          0      )
                  (    -1          0          0      )
                  (     0          0          1      )

 cart.    s( 8) = (  0.0000000 -1.0000000  0.0000000 )
                  (  1.0000000  0.0000000  0.0000000 )
                  (  0.0000000  0.0000000  1.0000000 )


      isym =  9     180 deg rotation - cart. axis [1,0,1]        

 cryst.   s( 9) = (     0          0          1      )
                  (     0         -1          0      )
                  (     1          0          0      )

 cart.    s( 9) = (  0.0000000  0.0000000  1.0000000 )
                  (  0.0000000 -1.0000000  0.0000000 )
                  (  1.0000000  0.0000000  0.0000000 )


      isym = 10     180 deg rotation - cart. axis [-1,0,1]       

 cryst.   s(10) = (     0          0         -1      )
                  (     0         -1          0      )
                  (    -1          0          0      )

 cart.    s(10) = (  0.0000000  0.0000000 -1.0000000 )
                  (  0.0000000 -1.0000000  0.0000000 )
                  ( -1.0000000  0.0000000  0.0000000 )


      isym = 11      90 deg rotation - cart. axis [0,1,0]        

 cryst.   s(11) = (     0          0         -1      )
                  (     0          1          0      )
                  (     1          0          0      )

 cart.    s(11) = (  0.0000000  0.0000000  1.0000000 )
                  (  0.0000000  1.0000000  0.0000000 )
                  ( -1.0000000  0.0000000  0.0000000 )


      isym = 12      90 deg rotation - cart. axis [0,-1,0]       

 cryst.   s(12) = (     0          0          1      )
                  (     0          1          0      )
                  (    -1          0          0      )

 cart.    s(12) = (  0.0000000  0.0000000 -1.0000000 )
                  (  0.0000000  1.0000000  0.0000000 )
                  (  1.0000000  0.0000000  0.0000000 )


      isym = 13     180 deg rotation - cart. axis [0,1,1]        

 cryst.   s(13) = (    -1          0          0      )
                  (     0          0          1      )
                  (     0          1          0      )

 cart.    s(13) = ( -1.0000000  0.0000000  0.0000000 )
                  (  0.0000000  0.0000000  1.0000000 )
                  (  0.0000000  1.0000000  0.0000000 )


      isym = 14     180 deg rotation - cart. axis [0,1,-1]       

 cryst.   s(14) = (    -1          0          0      )
                  (     0          0         -1      )
                  (     0         -1          0      )

 cart.    s(14) = ( -1.0000000  0.0000000  0.0000000 )
                  (  0.0000000  0.0000000 -1.0000000 )
                  (  0.0000000 -1.0000000  0.0000000 )


      isym = 15      90 deg rotation - cart. axis [-1,0,0]       

 cryst.   s(15) = (     1          0          0      )
                  (     0          0         -1      )
                  (     0          1          0      )

 cart.    s(15) = (  1.0000000  0.0000000  0.0000000 )
                  (  0.0000000  0.0000000  1.0000000 )
                  (  0.0000000 -1.0000000  0.0000000 )


      isym = 16      90 deg rotation - cart. axis [1,0,0]        

 cryst.   s(16) = (     1          0          0      )
                  (     0          0          1      )
                  (     0         -1          0      )

 cart.    s(16) = (  1.0000000  0.0000000  0.0000000 )
                  (  0.0000000  0.0000000 -1.0000000 )
                  (  0.0000000  1.0000000  0.0000000 )


      isym = 17     120 deg rotation - cart. axis [-1,-1,-1]     

 cryst.   s(17) = (     0          0          1      )
                  (     1          0          0      )
                  (     0          1          0      )

 cart.    s(17) = (  0.0000000  1.0000000  0.0000000 )
                  (  0.0000000  0.0000000  1.0000000 )
                  (  1.0000000  0.0000000  0.0000000 )


      isym = 18     120 deg rotation - cart. axis [-1,1,1]       

 cryst.   s(18) = (     0          0         -1      )
                  (    -1          0          0      )
                  (     0          1          0      )

 cart.    s(18) = (  0.0000000 -1.0000000  0.0000000 )
                  (  0.0000000  0.0000000  1.0000000 )
                  ( -1.0000000  0.0000000  0.0000000 )


      isym = 19     120 deg rotation - cart. axis [1,1,-1]       

 cryst.   s(19) = (     0          0         -1      )
                  (     1          0          0      )
                  (     0         -1          0      )

 cart.    s(19) = (  0.0000000  1.0000000  0.0000000 )
                  (  0.0000000  0.0000000 -1.0000000 )
                  ( -1.0000000  0.0000000  0.0000000 )


      isym = 20     120 deg rotation - cart. axis [1,-1,1]       

 cryst.   s(20) = (     0          0          1      )
                  (    -1          0          0      )
                  (     0         -1          0      )

 cart.    s(20) = (  0.0000000 -1.0000000  0.0000000 )
                  (  0.0000000  0.0000000 -1.0000000 )
                  (  1.0000000  0.0000000  0.0000000 )


      isym = 21     120 deg rotation - cart. axis [1,1,1]        

 cryst.   s(21) = (     0          1          0      )
                  (     0          0          1      )
                  (     1          0          0      )

 cart.    s(21) = (  0.0000000  0.0000000  1.0000000 )
                  (  1.0000000  0.0000000  0.0000000 )
                  (  0.0000000  1.0000000  0.0000000 )


      isym = 22     120 deg rotation - cart. axis [-1,1,-1]      

 cryst.   s(22) = (     0         -1          0      )
                  (     0          0         -1      )
                  (     1          0          0      )

 cart.    s(22) = (  0.0000000  0.0000000  1.0000000 )
                  ( -1.0000000  0.0000000  0.0000000 )
                  (  0.0000000 -1.0000000  0.0000000 )


      isym = 23     120 deg rotation - cart. axis [1,-1,-1]      

 cryst.   s(23) = (     0         -1          0      )
                  (     0          0          1      )
                  (    -1          0          0      )

 cart.    s(23) = (  0.0000000  0.0000000 -1.0000000 )
                  ( -1.0000000  0.0000000  0.0000000 )
                  (  0.0000000  1.0000000  0.0000000 )


      isym = 24     120 deg rotation - cart. axis [-1,-1,1]      

 cryst.   s(24) = (     0          1          0      )
                  (     0          0         -1      )
                  (    -1          0          0      )

 cart.    s(24) = (  0.0000000  0.0000000 -1.0000000 )
                  (  1.0000000  0.0000000  0.0000000 )
                  (  0.0000000 -1.0000000  0.0000000 )


      isym = 25     inversion                                    

 cryst.   s(25) = (    -1          0          0      )
                  (     0         -1          0      )
                  (     0          0         -1      )

 cart.    s(25) = ( -1.0000000  0.0000000  0.0000000 )
                  (  0.0000000 -1.0000000  0.0000000 )
                  (  0.0000000  0.0000000 -1.0000000 )


      isym = 26     inv. 180 deg rotation - cart. axis [0,0,1]   

 cryst.   s(26) = (     1          0          0      )
                  (     0          1          0      )
                  (     0          0         -1      )

 cart.    s(26) = (  1.0000000  0.0000000  0.0000000 )
                  (  0.0000000  1.0000000  0.0000000 )
                  (  0.0000000  0.0000000 -1.0000000 )


      isym = 27     inv. 180 deg rotation - cart. axis [0,1,0]   

 cryst.   s(27) = (     1          0          0      )
                  (     0         -1          0      )
                  (     0          0          1      )

 cart.    s(27) = (  1.0000000  0.0000000  0.0000000 )
                  (  0.0000000 -1.0000000  0.0000000 )
                  (  0.0000000  0.0000000  1.0000000 )


      isym = 28     inv. 180 deg rotation - cart. axis [1,0,0]   

 cryst.   s(28) = (    -1          0          0      )
                  (     0          1          0      )
                  (     0          0          1      )

 cart.    s(28) = ( -1.0000000  0.0000000  0.0000000 )
                  (  0.0000000  1.0000000  0.0000000 )
                  (  0.0000000  0.0000000  1.0000000 )


      isym = 29     inv. 180 deg rotation - cart. axis [1,1,0]   

 cryst.   s(29) = (     0         -1          0      )
                  (    -1          0          0      )
                  (     0          0          1      )

 cart.    s(29) = (  0.0000000 -1.0000000  0.0000000 )
                  ( -1.0000000  0.0000000  0.0000000 )
                  (  0.0000000  0.0000000  1.0000000 )


      isym = 30     inv. 180 deg rotation - cart. axis [1,-1,0]  

 cryst.   s(30) = (     0          1          0      )
                  (     1          0          0      )
                  (     0          0          1      )

 cart.    s(30) = (  0.0000000  1.0000000  0.0000000 )
                  (  1.0000000  0.0000000  0.0000000 )
                  (  0.0000000  0.0000000  1.0000000 )


      isym = 31     inv.  90 deg rotation - cart. axis [0,0,-1]  

 cryst.   s(31) = (     0          1          0      )
                  (    -1          0          0      )
                  (     0          0         -1      )

 cart.    s(31) = (  0.0000000 -1.0000000  0.0000000 )
                  (  1.0000000  0.0000000  0.0000000 )
                  (  0.0000000  0.0000000 -1.0000000 )


      isym = 32     inv.  90 deg rotation - cart. axis [0,0,1]   

 cryst.   s(32) = (     0         -1          0      )
                  (     1          0          0      )
                  (     0          0         -1      )

 cart.    s(32) = (  0.0000000  1.0000000  0.0000000 )
                  ( -1.0000000  0.0000000  0.0000000 )
                  (  0.0000000  0.0000000 -1.0000000 )


      isym = 33     inv. 180 deg rotation - cart. axis [1,0,1]   

 cryst.   s(33) = (     0          0         -1      )
                  (     0          1          0      )
                  (    -1          0          0      )

 cart.    s(33) = (  0.0000000  0.0000000 -1.0000000 )
                  (  0.0000000  1.0000000  0.0000000 )
                  ( -1.0000000  0.0000000  0.0000000 )


      isym = 34     inv. 180 deg rotation - cart. axis [-1,0,1]  

 cryst.   s(34) = (     0          0          1      )
                  (     0          1          0      )
                  (     1          0          0      )

 cart.    s(34) = (  0.0000000  0.0000000  1.0000000 )
                  (  0.0000000  1.0000000  0.0000000 )
                  (  1.0000000  0.0000000  0.0000000 )


      isym = 35     inv.  90 deg rotation - cart. axis [0,1,0]   

 cryst.   s(35) = (     0          0          1      )
                  (     0         -1          0      )
                  (    -1          0          0      )

 cart.    s(35) = (  0.0000000  0.0000000 -1.0000000 )
                  (  0.0000000 -1.0000000  0.0000000 )
                  (  1.0000000  0.0000000  0.0000000 )


      isym = 36     inv.  90 deg rotation - cart. axis [0,-1,0]  

 cryst.   s(36) = (     0          0         -1      )
                  (     0         -1          0      )
                  (     1          0          0      )

 cart.    s(36) = (  0.0000000  0.0000000  1.0000000 )
                  (  0.0000000 -1.0000000  0.0000000 )
                  ( -1.0000000  0.0000000  0.0000000 )


      isym = 37     inv. 180 deg rotation - cart. axis [0,1,1]   

 cryst.   s(37) = (     1          0          0      )
                  (     0          0         -1      )
                  (     0         -1          0      )

 cart.    s(37) = (  1.0000000  0.0000000  0.0000000 )
                  (  0.0000000  0.0000000 -1.0000000 )
                  (  0.0000000 -1.0000000  0.0000000 )


      isym = 38     inv. 180 deg rotation - cart. axis [0,1,-1]  

 cryst.   s(38) = (     1          0          0      )
                  (     0          0          1      )
                  (     0          1          0      )

 cart.    s(38) = (  1.0000000  0.0000000  0.0000000 )
                  (  0.0000000  0.0000000  1.0000000 )
                  (  0.0000000  1.0000000  0.0000000 )


      isym = 39     inv.  90 deg rotation - cart. axis [-1,0,0]  

 cryst.   s(39) = (    -1          0          0      )
                  (     0          0          1      )
                  (     0         -1          0      )

 cart.    s(39) = ( -1.0000000  0.0000000  0.0000000 )
                  (  0.0000000  0.0000000 -1.0000000 )
                  (  0.0000000  1.0000000  0.0000000 )


      isym = 40     inv.  90 deg rotation - cart. axis [1,0,0]   

 cryst.   s(40) = (    -1          0          0      )
                  (     0          0         -1      )
                  (     0          1          0      )

 cart.    s(40) = ( -1.0000000  0.0000000  0.0000000 )
                  (  0.0000000  0.0000000  1.0000000 )
                  (  0.0000000 -1.0000000  0.0000000 )


      isym = 41     inv. 120 deg rotation - cart. axis [-1,-1,-1]

 cryst.   s(41) = (     0          0         -1      )
                  (    -1          0          0      )
                  (     0         -1          0      )

 cart.    s(41) = (  0.0000000 -1.0000000  0.0000000 )
                  (  0.0000000  0.0000000 -1.0000000 )
                  ( -1.0000000  0.0000000  0.0000000 )


      isym = 42     inv. 120 deg rotation - cart. axis [-1,1,1]  

 cryst.   s(42) = (     0          0          1      )
                  (     1          0          0      )
                  (     0         -1          0      )

 cart.    s(42) = (  0.0000000  1.0000000  0.0000000 )
                  (  0.0000000  0.0000000 -1.0000000 )
                  (  1.0000000  0.0000000  0.0000000 )


      isym = 43     inv. 120 deg rotation - cart. axis [1,1,-1]  

 cryst.   s(43) = (     0          0          1      )
                  (    -1          0          0      )
                  (     0          1          0      )

 cart.    s(43) = (  0.0000000 -1.0000000  0.0000000 )
                  (  0.0000000  0.0000000  1.0000000 )
                  (  1.0000000  0.0000000  0.0000000 )


      isym = 44     inv. 120 deg rotation - cart. axis [1,-1,1]  

 cryst.   s(44) = (     0          0         -1      )
                  (     1          0          0      )
                  (     0          1          0      )

 cart.    s(44) = (  0.0000000  1.0000000  0.0000000 )
                  (  0.0000000  0.0000000  1.0000000 )
                  ( -1.0000000  0.0000000  0.0000000 )


      isym = 45     inv. 120 deg rotation - cart. axis [1,1,1]   

 cryst.   s(45) = (     0         -1          0      )
                  (     0          0         -1      )
                  (    -1          0          0      )

 cart.    s(45) = (  0.0000000  0.0000000 -1.0000000 )
                  ( -1.0000000  0.0000000  0.0000000 )
                  (  0.0000000 -1.0000000  0.0000000 )


      isym = 46     inv. 120 deg rotation - cart. axis [-1,1,-1] 

 cryst.   s(46) = (     0          1          0      )
                  (     0          0          1      )
                  (    -1          0          0      )

 cart.    s(46) = (  0.0000000  0.0000000 -1.0000000 )
                  (  1.0000000  0.0000000  0.0000000 )
                  (  0.0000000  1.0000000  0.0000000 )


      isym = 47     inv. 120 deg rotation - cart. axis [1,-1,-1] 

 cryst.   s(47) = (     0          1          0      )
                  (     0          0         -1      )
                  (     1          0          0      )

 cart.    s(47) = (  0.0000000  0.0000000  1.0000000 )
                  (  1.0000000  0.0000000  0.0000000 )
                  (  0.0000000 -1.0000000  0.0000000 )


      isym = 48     inv. 120 deg rotation - cart. axis [-1,-1,1] 

 cryst.   s(48) = (     0         -1          0      )
                  (     0          0          1      )
                  (     1          0          0      )

 cart.    s(48) = (  0.0000000  0.0000000  1.0000000 )
                  ( -1.0000000  0.0000000  0.0000000 )
                  (  0.0000000  1.0000000  0.0000000 )


   Cartesian axes

     site n.     atom                  positions (alat units)
         1           Sr  tau(   1) = (   0.5000000   0.5000000   0.5000000  )
         2           Sn  tau(   2) = (   0.0000000   0.0000000   0.0000000  )
         3           O   tau(   3) = (   0.0000000   0.0000000   0.5000000  )
         4           O   tau(   4) = (   0.5000000   0.0000000   0.0000000  )
         5           O   tau(   5) = (   0.0000000   0.5000000   0.0000000  )

   Crystallographic axes

     site n.     atom                  positions (cryst. coord.)
         1           Sr  tau(   1) = (  0.5000000  0.5000000  0.5000000  )
         2           Sn  tau(   2) = (  0.0000000  0.0000000  0.0000000  )
         3           O   tau(   3) = (  0.0000000  0.0000000  0.5000000  )
         4           O   tau(   4) = (  0.5000000  0.0000000  0.0000000  )
         5           O   tau(   5) = (  0.0000000  0.5000000  0.0000000  )

     number of k points=   122
                       cart. coord. in units 2pi/alat
        k(    1) = (   0.0000000   0.0000000   0.0000000), wk =   0.0163934
        k(    2) = (   0.0000000   0.0250000   0.0000000), wk =   0.0163934
        k(    3) = (   0.0000000   0.0500000   0.0000000), wk =   0.0163934
        k(    4) = (   0.0000000   0.0750000   0.0000000), wk =   0.0163934
        k(    5) = (   0.0000000   0.1000000   0.0000000), wk =   0.0163934
        k(    6) = (   0.0000000   0.1250000   0.0000000), wk =   0.0163934
        k(    7) = (   0.0000000   0.1500000   0.0000000), wk =   0.0163934
        k(    8) = (   0.0000000   0.1750000   0.0000000), wk =   0.0163934
        k(    9) = (   0.0000000   0.2000000   0.0000000), wk =   0.0163934
        k(   10) = (   0.0000000   0.2250000   0.0000000), wk =   0.0163934
        k(   11) = (   0.0000000   0.2500000   0.0000000), wk =   0.0163934
        k(   12) = (   0.0000000   0.2750000   0.0000000), wk =   0.0163934
        k(   13) = (   0.0000000   0.3000000   0.0000000), wk =   0.0163934
        k(   14) = (   0.0000000   0.3250000   0.0000000), wk =   0.0163934
        k(   15) = (   0.0000000   0.3500000   0.0000000), wk =   0.0163934
        k(   16) = (   0.0000000   0.3750000   0.0000000), wk =   0.0163934
        k(   17) = (   0.0000000   0.4000000   0.0000000), wk =   0.0163934
        k(   18) = (   0.0000000   0.4250000   0.0000000), wk =   0.0163934
        k(   19) = (   0.0000000   0.4500000   0.0000000), wk =   0.0163934
        k(   20) = (   0.0000000   0.4750000   0.0000000), wk =   0.0163934
        k(   21) = (   0.0000000   0.5000000   0.0000000), wk =   0.0163934
        k(   22) = (   0.0250000   0.5000000   0.0000000), wk =   0.0163934
        k(   23) = (   0.0500000   0.5000000   0.0000000), wk =   0.0163934
        k(   24) = (   0.0750000   0.5000000   0.0000000), wk =   0.0163934
        k(   25) = (   0.1000000   0.5000000   0.0000000), wk =   0.0163934
        k(   26) = (   0.1250000   0.5000000   0.0000000), wk =   0.0163934
        k(   27) = (   0.1500000   0.5000000   0.0000000), wk =   0.0163934
        k(   28) = (   0.1750000   0.5000000   0.0000000), wk =   0.0163934
        k(   29) = (   0.2000000   0.5000000   0.0000000), wk =   0.0163934
        k(   30) = (   0.2250000   0.5000000   0.0000000), wk =   0.0163934
        k(   31) = (   0.2500000   0.5000000   0.0000000), wk =   0.0163934
        k(   32) = (   0.2750000   0.5000000   0.0000000), wk =   0.0163934
        k(   33) = (   0.3000000   0.5000000   0.0000000), wk =   0.0163934
        k(   34) = (   0.3250000   0.5000000   0.0000000), wk =   0.0163934
        k(   35) = (   0.3500000   0.5000000   0.0000000), wk =   0.0163934
        k(   36) = (   0.3750000   0.5000000   0.0000000), wk =   0.0163934
        k(   37) = (   0.4000000   0.5000000   0.0000000), wk =   0.0163934
        k(   38) = (   0.4250000   0.5000000   0.0000000), wk =   0.0163934
        k(   39) = (   0.4500000   0.5000000   0.0000000), wk =   0.0163934
        k(   40) = (   0.4750000   0.5000000   0.0000000), wk =   0.0163934
        k(   41) = (   0.5000000   0.5000000   0.0000000), wk =   0.0163934
        k(   42) = (   0.4750000   0.4750000   0.0000000), wk =   0.0163934
        k(   43) = (   0.4500000   0.4500000   0.0000000), wk =   0.0163934
        k(   44) = (   0.4250000   0.4250000   0.0000000), wk =   0.0163934
        k(   45) = (   0.4000000   0.4000000   0.0000000), wk =   0.0163934
        k(   46) = (   0.3750000   0.3750000   0.0000000), wk =   0.0163934
        k(   47) = (   0.3500000   0.3500000   0.0000000), wk =   0.0163934
        k(   48) = (   0.3250000   0.3250000   0.0000000), wk =   0.0163934
        k(   49) = (   0.3000000   0.3000000   0.0000000), wk =   0.0163934
        k(   50) = (   0.2750000   0.2750000   0.0000000), wk =   0.0163934
        k(   51) = (   0.2500000   0.2500000   0.0000000), wk =   0.0163934
        k(   52) = (   0.2250000   0.2250000   0.0000000), wk =   0.0163934
        k(   53) = (   0.2000000   0.2000000   0.0000000), wk =   0.0163934
        k(   54) = (   0.1750000   0.1750000   0.0000000), wk =   0.0163934
        k(   55) = (   0.1500000   0.1500000   0.0000000), wk =   0.0163934
        k(   56) = (   0.1250000   0.1250000   0.0000000), wk =   0.0163934
        k(   57) = (   0.1000000   0.1000000   0.0000000), wk =   0.0163934
        k(   58) = (   0.0750000   0.0750000   0.0000000), wk =   0.0163934
        k(   59) = (   0.0500000   0.0500000   0.0000000), wk =   0.0163934
        k(   60) = (   0.0250000   0.0250000   0.0000000), wk =   0.0163934
        k(   61) = (   0.0000000   0.0000000   0.0000000), wk =   0.0163934
        k(   62) = (   0.0250000   0.0250000   0.0250000), wk =   0.0163934
        k(   63) = (   0.0500000   0.0500000   0.0500000), wk =   0.0163934
        k(   64) = (   0.0750000   0.0750000   0.0750000), wk =   0.0163934
        k(   65) = (   0.1000000   0.1000000   0.1000000), wk =   0.0163934
        k(   66) = (   0.1250000   0.1250000   0.1250000), wk =   0.0163934
        k(   67) = (   0.1500000   0.1500000   0.1500000), wk =   0.0163934
        k(   68) = (   0.1750000   0.1750000   0.1750000), wk =   0.0163934
        k(   69) = (   0.2000000   0.2000000   0.2000000), wk =   0.0163934
        k(   70) = (   0.2250000   0.2250000   0.2250000), wk =   0.0163934
        k(   71) = (   0.2500000   0.2500000   0.2500000), wk =   0.0163934
        k(   72) = (   0.2750000   0.2750000   0.2750000), wk =   0.0163934
        k(   73) = (   0.3000000   0.3000000   0.3000000), wk =   0.0163934
        k(   74) = (   0.3250000   0.3250000   0.3250000), wk =   0.0163934
        k(   75) = (   0.3500000   0.3500000   0.3500000), wk =   0.0163934
        k(   76) = (   0.3750000   0.3750000   0.3750000), wk =   0.0163934
        k(   77) = (   0.4000000   0.4000000   0.4000000), wk =   0.0163934
        k(   78) = (   0.4250000   0.4250000   0.4250000), wk =   0.0163934
        k(   79) = (   0.4500000   0.4500000   0.4500000), wk =   0.0163934
        k(   80) = (   0.4750000   0.4750000   0.4750000), wk =   0.0163934
        k(   81) = (   0.5000000   0.5000000   0.5000000), wk =   0.0163934
        k(   82) = (   0.4750000   0.5000000   0.4750000), wk =   0.0163934
        k(   83) = (   0.4500000   0.5000000   0.4500000), wk =   0.0163934
        k(   84) = (   0.4250000   0.5000000   0.4250000), wk =   0.0163934
        k(   85) = (   0.4000000   0.5000000   0.4000000), wk =   0.0163934
        k(   86) = (   0.3750000   0.5000000   0.3750000), wk =   0.0163934
        k(   87) = (   0.3500000   0.5000000   0.3500000), wk =   0.0163934
        k(   88) = (   0.3250000   0.5000000   0.3250000), wk =   0.0163934
        k(   89) = (   0.3000000   0.5000000   0.3000000), wk =   0.0163934
        k(   90) = (   0.2750000   0.5000000   0.2750000), wk =   0.0163934
        k(   91) = (   0.2500000   0.5000000   0.2500000), wk =   0.0163934
        k(   92) = (   0.2250000   0.5000000   0.2250000), wk =   0.0163934
        k(   93) = (   0.2000000   0.5000000   0.2000000), wk =   0.0163934
        k(   94) = (   0.1750000   0.5000000   0.1750000), wk =   0.0163934
        k(   95) = (   0.1500000   0.5000000   0.1500000), wk =   0.0163934
        k(   96) = (   0.1250000   0.5000000   0.1250000), wk =   0.0163934
        k(   97) = (   0.1000000   0.5000000   0.1000000), wk =   0.0163934
        k(   98) = (   0.0750000   0.5000000   0.0750000), wk =   0.0163934
        k(   99) = (   0.0500000   0.5000000   0.0500000), wk =   0.0163934
        k(  100) = (   0.0250000   0.5000000   0.0250000), wk =   0.0163934
        k(  101) = (   0.0000000   0.5000000   0.0000000), wk =   0.0163934
        k(  102) = (   0.5000000   0.5000000   0.0000000), wk =   0.0163934
        k(  103) = (   0.5000000   0.5000000   0.0250000), wk =   0.0163934
        k(  104) = (   0.5000000   0.5000000   0.0500000), wk =   0.0163934
        k(  105) = (   0.5000000   0.5000000   0.0750000), wk =   0.0163934
        k(  106) = (   0.5000000   0.5000000   0.1000000), wk =   0.0163934
        k(  107) = (   0.5000000   0.5000000   0.1250000), wk =   0.0163934
        k(  108) = (   0.5000000   0.5000000   0.1500000), wk =   0.0163934
        k(  109) = (   0.5000000   0.5000000   0.1750000), wk =   0.0163934
        k(  110) = (   0.5000000   0.5000000   0.2000000), wk =   0.0163934
        k(  111) = (   0.5000000   0.5000000   0.2250000), wk =   0.0163934
        k(  112) = (   0.5000000   0.5000000   0.2500000), wk =   0.0163934
        k(  113) = (   0.5000000   0.5000000   0.2750000), wk =   0.0163934
        k(  114) = (   0.5000000   0.5000000   0.3000000), wk =   0.0163934
        k(  115) = (   0.5000000   0.5000000   0.3250000), wk =   0.0163934
        k(  116) = (   0.5000000   0.5000000   0.3500000), wk =   0.0163934
        k(  117) = (   0.5000000   0.5000000   0.3750000), wk =   0.0163934
        k(  118) = (   0.5000000   0.5000000   0.4000000), wk =   0.0163934
        k(  119) = (   0.5000000   0.5000000   0.4250000), wk =   0.0163934
        k(  120) = (   0.5000000   0.5000000   0.4500000), wk =   0.0163934
        k(  121) = (   0.5000000   0.5000000   0.4750000), wk =   0.0163934
        k(  122) = (   0.5000000   0.5000000   0.5000000), wk =   0.0163934

                       cryst. coord.
        k(    1) = (   0.0000000   0.0000000   0.0000000), wk =   0.0163934
        k(    2) = (   0.0000000   0.0250000   0.0000000), wk =   0.0163934
        k(    3) = (   0.0000000   0.0500000   0.0000000), wk =   0.0163934
        k(    4) = (   0.0000000   0.0750000   0.0000000), wk =   0.0163934
        k(    5) = (   0.0000000   0.1000000   0.0000000), wk =   0.0163934
        k(    6) = (   0.0000000   0.1250000   0.0000000), wk =   0.0163934
        k(    7) = (   0.0000000   0.1500000   0.0000000), wk =   0.0163934
        k(    8) = (   0.0000000   0.1750000   0.0000000), wk =   0.0163934
        k(    9) = (   0.0000000   0.2000000   0.0000000), wk =   0.0163934
        k(   10) = (   0.0000000   0.2250000   0.0000000), wk =   0.0163934
        k(   11) = (   0.0000000   0.2500000   0.0000000), wk =   0.0163934
        k(   12) = (   0.0000000   0.2750000   0.0000000), wk =   0.0163934
        k(   13) = (   0.0000000   0.3000000   0.0000000), wk =   0.0163934
        k(   14) = (   0.0000000   0.3250000   0.0000000), wk =   0.0163934
        k(   15) = (   0.0000000   0.3500000   0.0000000), wk =   0.0163934
        k(   16) = (   0.0000000   0.3750000   0.0000000), wk =   0.0163934
        k(   17) = (   0.0000000   0.4000000   0.0000000), wk =   0.0163934
        k(   18) = (   0.0000000   0.4250000   0.0000000), wk =   0.0163934
        k(   19) = (   0.0000000   0.4500000   0.0000000), wk =   0.0163934
        k(   20) = (   0.0000000   0.4750000   0.0000000), wk =   0.0163934
        k(   21) = (   0.0000000   0.5000000   0.0000000), wk =   0.0163934
        k(   22) = (   0.0250000   0.5000000   0.0000000), wk =   0.0163934
        k(   23) = (   0.0500000   0.5000000   0.0000000), wk =   0.0163934
        k(   24) = (   0.0750000   0.5000000   0.0000000), wk =   0.0163934
        k(   25) = (   0.1000000   0.5000000   0.0000000), wk =   0.0163934
        k(   26) = (   0.1250000   0.5000000   0.0000000), wk =   0.0163934
        k(   27) = (   0.1500000   0.5000000   0.0000000), wk =   0.0163934
        k(   28) = (   0.1750000   0.5000000   0.0000000), wk =   0.0163934
        k(   29) = (   0.2000000   0.5000000   0.0000000), wk =   0.0163934
        k(   30) = (   0.2250000   0.5000000   0.0000000), wk =   0.0163934
        k(   31) = (   0.2500000   0.5000000   0.0000000), wk =   0.0163934
        k(   32) = (   0.2750000   0.5000000   0.0000000), wk =   0.0163934
        k(   33) = (   0.3000000   0.5000000   0.0000000), wk =   0.0163934
        k(   34) = (   0.3250000   0.5000000   0.0000000), wk =   0.0163934
        k(   35) = (   0.3500000   0.5000000   0.0000000), wk =   0.0163934
        k(   36) = (   0.3750000   0.5000000   0.0000000), wk =   0.0163934
        k(   37) = (   0.4000000   0.5000000   0.0000000), wk =   0.0163934
        k(   38) = (   0.4250000   0.5000000   0.0000000), wk =   0.0163934
        k(   39) = (   0.4500000   0.5000000   0.0000000), wk =   0.0163934
        k(   40) = (   0.4750000   0.5000000   0.0000000), wk =   0.0163934
        k(   41) = (   0.5000000   0.5000000   0.0000000), wk =   0.0163934
        k(   42) = (   0.4750000   0.4750000   0.0000000), wk =   0.0163934
        k(   43) = (   0.4500000   0.4500000   0.0000000), wk =   0.0163934
        k(   44) = (   0.4250000   0.4250000   0.0000000), wk =   0.0163934
        k(   45) = (   0.4000000   0.4000000   0.0000000), wk =   0.0163934
        k(   46) = (   0.3750000   0.3750000   0.0000000), wk =   0.0163934
        k(   47) = (   0.3500000   0.3500000   0.0000000), wk =   0.0163934
        k(   48) = (   0.3250000   0.3250000   0.0000000), wk =   0.0163934
        k(   49) = (   0.3000000   0.3000000   0.0000000), wk =   0.0163934
        k(   50) = (   0.2750000   0.2750000   0.0000000), wk =   0.0163934
        k(   51) = (   0.2500000   0.2500000   0.0000000), wk =   0.0163934
        k(   52) = (   0.2250000   0.2250000   0.0000000), wk =   0.0163934
        k(   53) = (   0.2000000   0.2000000   0.0000000), wk =   0.0163934
        k(   54) = (   0.1750000   0.1750000   0.0000000), wk =   0.0163934
        k(   55) = (   0.1500000   0.1500000   0.0000000), wk =   0.0163934
        k(   56) = (   0.1250000   0.1250000   0.0000000), wk =   0.0163934
        k(   57) = (   0.1000000   0.1000000   0.0000000), wk =   0.0163934
        k(   58) = (   0.0750000   0.0750000   0.0000000), wk =   0.0163934
        k(   59) = (   0.0500000   0.0500000   0.0000000), wk =   0.0163934
        k(   60) = (   0.0250000   0.0250000   0.0000000), wk =   0.0163934
        k(   61) = (   0.0000000   0.0000000   0.0000000), wk =   0.0163934
        k(   62) = (   0.0250000   0.0250000   0.0250000), wk =   0.0163934
        k(   63) = (   0.0500000   0.0500000   0.0500000), wk =   0.0163934
        k(   64) = (   0.0750000   0.0750000   0.0750000), wk =   0.0163934
        k(   65) = (   0.1000000   0.1000000   0.1000000), wk =   0.0163934
        k(   66) = (   0.1250000   0.1250000   0.1250000), wk =   0.0163934
        k(   67) = (   0.1500000   0.1500000   0.1500000), wk =   0.0163934
        k(   68) = (   0.1750000   0.1750000   0.1750000), wk =   0.0163934
        k(   69) = (   0.2000000   0.2000000   0.2000000), wk =   0.0163934
        k(   70) = (   0.2250000   0.2250000   0.2250000), wk =   0.0163934
        k(   71) = (   0.2500000   0.2500000   0.2500000), wk =   0.0163934
        k(   72) = (   0.2750000   0.2750000   0.2750000), wk =   0.0163934
        k(   73) = (   0.3000000   0.3000000   0.3000000), wk =   0.0163934
        k(   74) = (   0.3250000   0.3250000   0.3250000), wk =   0.0163934
        k(   75) = (   0.3500000   0.3500000   0.3500000), wk =   0.0163934
        k(   76) = (   0.3750000   0.3750000   0.3750000), wk =   0.0163934
        k(   77) = (   0.4000000   0.4000000   0.4000000), wk =   0.0163934
        k(   78) = (   0.4250000   0.4250000   0.4250000), wk =   0.0163934
        k(   79) = (   0.4500000   0.4500000   0.4500000), wk =   0.0163934
        k(   80) = (   0.4750000   0.4750000   0.4750000), wk =   0.0163934
        k(   81) = (   0.5000000   0.5000000   0.5000000), wk =   0.0163934
        k(   82) = (   0.4750000   0.5000000   0.4750000), wk =   0.0163934
        k(   83) = (   0.4500000   0.5000000   0.4500000), wk =   0.0163934
        k(   84) = (   0.4250000   0.5000000   0.4250000), wk =   0.0163934
        k(   85) = (   0.4000000   0.5000000   0.4000000), wk =   0.0163934
        k(   86) = (   0.3750000   0.5000000   0.3750000), wk =   0.0163934
        k(   87) = (   0.3500000   0.5000000   0.3500000), wk =   0.0163934
        k(   88) = (   0.3250000   0.5000000   0.3250000), wk =   0.0163934
        k(   89) = (   0.3000000   0.5000000   0.3000000), wk =   0.0163934
        k(   90) = (   0.2750000   0.5000000   0.2750000), wk =   0.0163934
        k(   91) = (   0.2500000   0.5000000   0.2500000), wk =   0.0163934
        k(   92) = (   0.2250000   0.5000000   0.2250000), wk =   0.0163934
        k(   93) = (   0.2000000   0.5000000   0.2000000), wk =   0.0163934
        k(   94) = (   0.1750000   0.5000000   0.1750000), wk =   0.0163934
        k(   95) = (   0.1500000   0.5000000   0.1500000), wk =   0.0163934
        k(   96) = (   0.1250000   0.5000000   0.1250000), wk =   0.0163934
        k(   97) = (   0.1000000   0.5000000   0.1000000), wk =   0.0163934
        k(   98) = (   0.0750000   0.5000000   0.0750000), wk =   0.0163934
        k(   99) = (   0.0500000   0.5000000   0.0500000), wk =   0.0163934
        k(  100) = (   0.0250000   0.5000000   0.0250000), wk =   0.0163934
        k(  101) = (   0.0000000   0.5000000   0.0000000), wk =   0.0163934
        k(  102) = (   0.5000000   0.5000000   0.0000000), wk =   0.0163934
        k(  103) = (   0.5000000   0.5000000   0.0250000), wk =   0.0163934
        k(  104) = (   0.5000000   0.5000000   0.0500000), wk =   0.0163934
        k(  105) = (   0.5000000   0.5000000   0.0750000), wk =   0.0163934
        k(  106) = (   0.5000000   0.5000000   0.1000000), wk =   0.0163934
        k(  107) = (   0.5000000   0.5000000   0.1250000), wk =   0.0163934
        k(  108) = (   0.5000000   0.5000000   0.1500000), wk =   0.0163934
        k(  109) = (   0.5000000   0.5000000   0.1750000), wk =   0.0163934
        k(  110) = (   0.5000000   0.5000000   0.2000000), wk =   0.0163934
        k(  111) = (   0.5000000   0.5000000   0.2250000), wk =   0.0163934
        k(  112) = (   0.5000000   0.5000000   0.2500000), wk =   0.0163934
        k(  113) = (   0.5000000   0.5000000   0.2750000), wk =   0.0163934
        k(  114) = (   0.5000000   0.5000000   0.3000000), wk =   0.0163934
        k(  115) = (   0.5000000   0.5000000   0.3250000), wk =   0.0163934
        k(  116) = (   0.5000000   0.5000000   0.3500000), wk =   0.0163934
        k(  117) = (   0.5000000   0.5000000   0.3750000), wk =   0.0163934
        k(  118) = (   0.5000000   0.5000000   0.4000000), wk =   0.0163934
        k(  119) = (   0.5000000   0.5000000   0.4250000), wk =   0.0163934
        k(  120) = (   0.5000000   0.5000000   0.4500000), wk =   0.0163934
        k(  121) = (   0.5000000   0.5000000   0.4750000), wk =   0.0163934
        k(  122) = (   0.5000000   0.5000000   0.5000000), wk =   0.0163934

     Dense  grid:    29423 G-vectors     FFT dimensions: (  40,  40,  40)

     Dynamical RAM for                 wfc:       1.80 MB

     Dynamical RAM for     wfc (w. buffer):       1.80 MB

     Dynamical RAM for           str. fact:       1.35 MB

     Dynamical RAM for           local pot:       0.00 MB

     Dynamical RAM for          nlocal pot:       3.38 MB

     Dynamical RAM for                qrad:       4.62 MB

     Dynamical RAM for          rho,v,vnew:       2.81 MB

     Dynamical RAM for           G-vectors:       1.91 MB

     Dynamical RAM for          h,s,v(r/c):       0.05 MB

     Dynamical RAM for          <psi|beta>:       0.03 MB

     Dynamical RAM for      wfcinit/wfcrot:       3.63 MB

     Dynamical RAM for           addusdens:      84.85 MB

     Estimated static dynamical RAM per process >      20.10 MB

     Estimated max dynamical RAM per process >     104.95 MB

     Check: negative/imaginary core charge=   -0.000010    0.000000

     The potential is recalculated from file :
     ./SrSnO3/pwscf.save/charge-density.dat

     Starting wfcs are   29 randomized atomic wfcs +    3 random wfcs

     Band Structure Calculation
     CG style diagonalization

     Computing kpt #:     1
     total cpu time spent up to now is        9.8 secs

     Computing kpt #:     2
     total cpu time spent up to now is       30.5 secs

     Computing kpt #:     3
     total cpu time spent up to now is       45.7 secs

     Computing kpt #:     4
     total cpu time spent up to now is       62.1 secs

     Computing kpt #:     5
     total cpu time spent up to now is       75.0 secs

     Computing kpt #:     6
     total cpu time spent up to now is       86.7 secs

     Computing kpt #:     7
     total cpu time spent up to now is       98.3 secs

     Computing kpt #:     8
     total cpu time spent up to now is      110.2 secs

     Computing kpt #:     9
     total cpu time spent up to now is      120.6 secs

     Computing kpt #:    10
     total cpu time spent up to now is      131.4 secs

     Computing kpt #:    11
     total cpu time spent up to now is      143.1 secs

     Computing kpt #:    12
     total cpu time spent up to now is      155.2 secs

     Computing kpt #:    13
     total cpu time spent up to now is      168.0 secs

     Computing kpt #:    14
     total cpu time spent up to now is      180.8 secs

     Computing kpt #:    15
     total cpu time spent up to now is      193.3 secs

     Computing kpt #:    16
     total cpu time spent up to now is      204.8 secs

     Computing kpt #:    17
     total cpu time spent up to now is      216.7 secs

     Computing kpt #:    18
     total cpu time spent up to now is      227.7 secs

     Computing kpt #:    19
     total cpu time spent up to now is      239.3 secs

     Computing kpt #:    20
     total cpu time spent up to now is      250.9 secs

     Computing kpt #:    21
     total cpu time spent up to now is      261.8 secs

     Computing kpt #:    22
     total cpu time spent up to now is      276.9 secs

     Computing kpt #:    23
     total cpu time spent up to now is      291.8 secs

     Computing kpt #:    24
     total cpu time spent up to now is      305.3 secs

     Computing kpt #:    25
     total cpu time spent up to now is      319.1 secs

     Computing kpt #:    26
     total cpu time spent up to now is      332.0 secs

     Computing kpt #:    27
     total cpu time spent up to now is      343.6 secs

     Computing kpt #:    28
     total cpu time spent up to now is      357.1 secs

     Computing kpt #:    29
     total cpu time spent up to now is      370.2 secs

     Computing kpt #:    30
     total cpu time spent up to now is      381.4 secs

     Computing kpt #:    31
     total cpu time spent up to now is      394.4 secs

     Computing kpt #:    32
     total cpu time spent up to now is      405.6 secs

     Computing kpt #:    33
     total cpu time spent up to now is      416.4 secs

     Computing kpt #:    34
     total cpu time spent up to now is      426.2 secs

     Computing kpt #:    35
     total cpu time spent up to now is      436.9 secs

     Computing kpt #:    36
     total cpu time spent up to now is      447.6 secs

     Computing kpt #:    37
     total cpu time spent up to now is      460.6 secs

     Computing kpt #:    38
     total cpu time spent up to now is      471.0 secs

     Computing kpt #:    39
     total cpu time spent up to now is      482.1 secs

     Computing kpt #:    40
     total cpu time spent up to now is      493.5 secs

     Computing kpt #:    41
     total cpu time spent up to now is      504.4 secs

     Computing kpt #:    42
     total cpu time spent up to now is      520.6 secs

     Computing kpt #:    43
     total cpu time spent up to now is      535.8 secs

     Computing kpt #:    44
     total cpu time spent up to now is      551.4 secs

     Computing kpt #:    45
     total cpu time spent up to now is      565.3 secs

     Computing kpt #:    46
     total cpu time spent up to now is      578.1 secs

     Computing kpt #:    47
     total cpu time spent up to now is      590.3 secs

     Computing kpt #:    48
     total cpu time spent up to now is      601.4 secs

     Computing kpt #:    49
     total cpu time spent up to now is      612.1 secs

     Computing kpt #:    50
     total cpu time spent up to now is      623.7 secs

     Computing kpt #:    51
     total cpu time spent up to now is      636.4 secs

     Computing kpt #:    52
     total cpu time spent up to now is      648.2 secs

     Computing kpt #:    53
     total cpu time spent up to now is      660.3 secs

     Computing kpt #:    54
     total cpu time spent up to now is      672.4 secs

     Computing kpt #:    55
     total cpu time spent up to now is      684.4 secs

     Computing kpt #:    56
     total cpu time spent up to now is      698.3 secs

     Computing kpt #:    57
     total cpu time spent up to now is      713.7 secs

     Computing kpt #:    58
     total cpu time spent up to now is      733.3 secs

     Computing kpt #:    59
     total cpu time spent up to now is      751.9 secs

     Computing kpt #:    60
     total cpu time spent up to now is      769.9 secs

     Computing kpt #:    61
     total cpu time spent up to now is      776.6 secs

     Computing kpt #:    62
     total cpu time spent up to now is      790.7 secs

     Computing kpt #:    63
     total cpu time spent up to now is      808.4 secs

     Computing kpt #:    64
     total cpu time spent up to now is      819.3 secs

     Computing kpt #:    65
     total cpu time spent up to now is      829.9 secs

     Computing kpt #:    66
     total cpu time spent up to now is      839.9 secs

     Computing kpt #:    67
     total cpu time spent up to now is      852.2 secs

     Computing kpt #:    68
     total cpu time spent up to now is      864.0 secs

     Computing kpt #:    69
     total cpu time spent up to now is      875.5 secs

     Computing kpt #:    70
     total cpu time spent up to now is      895.4 secs

     Computing kpt #:    71
     total cpu time spent up to now is      906.6 secs

     Computing kpt #:    72
     total cpu time spent up to now is      917.7 secs

     Computing kpt #:    73
     total cpu time spent up to now is      929.3 secs

     Computing kpt #:    74
     total cpu time spent up to now is      940.3 secs

     Computing kpt #:    75
     total cpu time spent up to now is      950.3 secs

     Computing kpt #:    76
     total cpu time spent up to now is      959.9 secs

     Computing kpt #:    77
     total cpu time spent up to now is      970.2 secs

     Computing kpt #:    78
     total cpu time spent up to now is      979.6 secs

     Computing kpt #:    79
     total cpu time spent up to now is      990.0 secs

     Computing kpt #:    80
     total cpu time spent up to now is     1001.4 secs

     Computing kpt #:    81
     total cpu time spent up to now is     1008.8 secs

     Computing kpt #:    82
     total cpu time spent up to now is     1024.2 secs

     Computing kpt #:    83
     total cpu time spent up to now is     1038.7 secs

     Computing kpt #:    84
     total cpu time spent up to now is     1051.6 secs

     Computing kpt #:    85
     total cpu time spent up to now is     1064.4 secs

     Computing kpt #:    86
     total cpu time spent up to now is     1075.5 secs

     Computing kpt #:    87
     total cpu time spent up to now is     1086.3 secs

     Computing kpt #:    88
     total cpu time spent up to now is     1097.1 secs

     Computing kpt #:    89
     total cpu time spent up to now is     1114.7 secs

     Computing kpt #:    90
     total cpu time spent up to now is     1128.0 secs

     Computing kpt #:    91
     total cpu time spent up to now is     1139.5 secs

     Computing kpt #:    92
     total cpu time spent up to now is     1149.4 secs

     Computing kpt #:    93
     total cpu time spent up to now is     1160.2 secs

     Computing kpt #:    94
     total cpu time spent up to now is     1173.5 secs

     Computing kpt #:    95
     total cpu time spent up to now is     1186.2 secs

     Computing kpt #:    96
     total cpu time spent up to now is     1196.0 secs

     Computing kpt #:    97
     total cpu time spent up to now is     1208.1 secs

     Computing kpt #:    98
     total cpu time spent up to now is     1224.0 secs

     Computing kpt #:    99
     total cpu time spent up to now is     1235.5 secs

     Computing kpt #:   100
     total cpu time spent up to now is     1247.8 secs

     Computing kpt #:   101
     total cpu time spent up to now is     1257.8 secs

     Computing kpt #:   102
     total cpu time spent up to now is     1268.7 secs

     Computing kpt #:   103
     total cpu time spent up to now is     1281.8 secs

     Computing kpt #:   104
     total cpu time spent up to now is     1293.8 secs

     Computing kpt #:   105
     total cpu time spent up to now is     1303.2 secs

     Computing kpt #:   106
     total cpu time spent up to now is     1312.0 secs

     Computing kpt #:   107
     total cpu time spent up to now is     1321.7 secs

     Computing kpt #:   108
     total cpu time spent up to now is     1330.9 secs

     Computing kpt #:   109
     total cpu time spent up to now is     1339.3 secs

     Computing kpt #:   110
     total cpu time spent up to now is     1349.4 secs

     Computing kpt #:   111
     total cpu time spent up to now is     1358.4 secs

     Computing kpt #:   112
     total cpu time spent up to now is     1368.5 secs

     Computing kpt #:   113
     total cpu time spent up to now is     1379.0 secs

     Computing kpt #:   114
     total cpu time spent up to now is     1389.9 secs

     Computing kpt #:   115
     total cpu time spent up to now is     1401.3 secs

     Computing kpt #:   116
     total cpu time spent up to now is     1412.8 secs

     Computing kpt #:   117
     total cpu time spent up to now is     1424.0 secs

     Computing kpt #:   118
     total cpu time spent up to now is     1436.0 secs

     Computing kpt #:   119
     total cpu time spent up to now is     1448.8 secs

     Computing kpt #:   120
     total cpu time spent up to now is     1462.8 secs

     Computing kpt #:   121
     total cpu time spent up to now is     1477.3 secs

     Computing kpt #:   122
     total cpu time spent up to now is     1485.4 secs

     ethr =  2.38E-11,  avg # of iterations =105.5

     total cpu time spent up to now is     1485.4 secs

     End of band structure calculation

          k = 0.0000 0.0000 0.0000 (  3743 PWs)   bands (ev):

   -24.0496 -11.5905 -11.5905 -10.7779 -10.7779 -10.7779  -8.7889  -6.0136
    -6.0136  -6.0136  -5.6991  -5.6991   4.2957   4.2957   4.2957   8.1326
     8.1326   8.1326   8.3489   8.3489   8.3489  10.0444  14.3463  14.3463
    14.8892  16.2463  16.2463  16.2463  21.9928  21.9928  21.9928  24.9789

          k = 0.0000 0.0250 0.0000 (  3743 PWs)   bands (ev):

   -24.0496 -11.5905 -11.5888 -10.7780 -10.7780 -10.7779  -8.7877  -6.0198
    -6.0134  -6.0134  -5.6995  -5.6990   4.2964   4.2966   4.2966   8.1281
     8.1304   8.1304   8.3261   8.3473   8.3473  10.0767  14.3548  14.3558
    14.9013  16.2481  16.2538  16.2538  21.9814  21.9920  21.9920  24.9499

          k = 0.0000 0.0500 0.0000 (  3735 PWs)   bands (ev):

   -24.0494 -11.5904 -11.5833 -10.7783 -10.7783 -10.7779  -8.7843  -6.0383
    -6.0126  -6.0126  -5.7005  -5.6986   4.2986   4.2993   4.2993   8.1149
     8.1241   8.1241   8.2622   8.3427   8.3428  10.1687  14.3802  14.3840
    14.9374  16.2536  16.2761  16.2762  21.9470  21.9897  21.9897  24.8672

          k = 0.0000 0.0750 0.0000 (  3743 PWs)   bands (ev):

   -24.0491 -11.5903 -11.5747 -10.7790 -10.7790 -10.7779  -8.7784  -6.0695
    -6.0114  -6.0114  -5.7015  -5.6979   4.3022   4.3037   4.3037   8.0933
     8.1139   8.1139   8.1676   8.3352   8.3352  10.3098  14.4218  14.4302
    14.9974  16.2626  16.3129  16.3129  21.8899  21.9860  21.9860  24.7411

          k = 0.0000 0.1000 0.0000 (  3743 PWs)   bands (ev):

   -24.0486 -11.5902 -11.5629 -10.7798 -10.7798 -10.7778  -8.7698  -6.1134
    -6.0098  -6.0098  -5.7020  -5.6971   4.3075   4.3098   4.3098   8.0533
     8.0642   8.1002   8.1003   8.3247   8.3247  10.4890  14.4787  14.4932
    15.0810  16.2749  16.3631  16.3631  21.8106  21.9813  21.9813  24.5839

          k = 0.0000 0.1250 0.0000 (  3747 PWs)   bands (ev):

   -24.0481 -11.5901 -11.5481 -10.7808 -10.7808 -10.7778  -8.7584  -6.1698
    -6.0078  -6.0078  -5.7014  -5.6960   4.3146   4.3172   4.3172   7.9277
     8.0286   8.0836   8.0836   8.3114   8.3114  10.6971  14.5496  14.5714
    15.1877  16.2905  16.4258  16.4258  21.7097  21.9761  21.9761  24.4070

          k = 0.0000 0.1500 0.0000 (  3731 PWs)   bands (ev):

   -24.0475 -11.5897 -11.5307 -10.7818 -10.7818 -10.7777  -8.7438  -6.2379
    -6.0054  -6.0054  -5.6998  -5.6947   4.3234   4.3260   4.3260   7.7967
     7.9879   8.0648   8.0648   8.2957   8.2957  10.9278  14.6330  14.6630
    15.3169  16.3089  16.4995  16.4995  21.5878  21.9710  21.9710  24.2192

          k = 0.0000 0.1750 0.0000 (  3735 PWs)   bands (ev):

   -24.0468 -11.5895 -11.5111 -10.7832 -10.7832 -10.7777  -8.7257  -6.3168
    -6.0027  -6.0027  -5.6970  -5.6932   4.3342   4.3358   4.3358   7.6642
     7.9431   8.0445   8.0445   8.2775   8.2775  11.1762  14.7270  14.7656
    15.4679  16.3298  16.5827  16.5827  21.4460  21.9666  21.9666  24.0275

          k = 0.0000 0.2000 0.0000 (  3715 PWs)   bands (ev):

   -24.0460 -11.5891 -11.4898 -10.7843 -10.7843 -10.7776  -8.7036  -6.4050
    -5.9998  -5.9998  -5.6933  -5.6916   4.3465   4.3465   4.3470   7.5331
     7.8958   8.0234   8.0234   8.2573   8.2573  11.4385  14.8297  14.8770
    15.6398  16.3529  16.6735  16.6735  21.2855  21.9639  21.9639  23.8369

          k = 0.0000 0.2250 0.0000 (  3707 PWs)   bands (ev):

   -24.0452 -11.5888 -11.4673 -10.7856 -10.7856 -10.7775  -8.6774  -6.5012
    -5.9968  -5.9968  -5.6900  -5.6888   4.3577   4.3577   4.3617   7.4052
     7.8470   8.0024   8.0024   8.2353   8.2353  11.7114  14.9386  14.9945
    15.8316  16.3776  16.7698  16.7698  21.1078  21.9636  21.9636  23.6513

          k = 0.0000 0.2500 0.0000 (  3691 PWs)   bands (ev):

   -24.0443 -11.5885 -11.4442 -10.7869 -10.7869 -10.7773  -8.6465  -6.6039
    -5.9936  -5.9936  -5.6883  -5.6839   4.3691   4.3691   4.3781   7.2822
     7.7981   7.9822   7.9822   8.2119   8.2119  11.9914  15.0513  15.1153
    16.0423  16.4034  16.8694  16.8694  20.9148  21.9668  21.9668  23.4737

          k = 0.0000 0.2750 0.0000 (  3695 PWs)   bands (ev):

   -24.0435 -11.5882 -11.4211 -10.7885 -10.7885 -10.7773  -8.6109  -6.7113
    -5.9905  -5.9905  -5.6866  -5.6786   4.3805   4.3805   4.3958   7.1655
     7.7503   7.9634   7.9634   8.1874   8.1874  12.2752  15.1649  15.2368
    16.2705  16.4298  16.9700  16.9700  20.7088  21.9746  21.9746  23.3064

          k = 0.0000 0.3000 0.0000 (  3703 PWs)   bands (ev):

   -24.0427 -11.5879 -11.3986 -10.7899 -10.7899 -10.7774  -8.5704  -6.8217
    -5.9875  -5.9875  -5.6850  -5.6733   4.3915   4.3915   4.4147   7.0562
     7.7047   7.9466   7.9466   8.1625   8.1625  12.5588  15.2762  15.3560
    16.4560  16.5148  17.0691  17.0691  20.4926  21.9878  21.9878  23.1516

          k = 0.0000 0.3250 0.0000 (  3683 PWs)   bands (ev):

   -24.0419 -11.5875 -11.3768 -10.7911 -10.7911 -10.7773  -8.5252  -6.9332
    -5.9846  -5.9846  -5.6834  -5.6681   4.4021   4.4021   4.4341   6.9558
     7.6622   7.9324   7.9324   8.1375   8.1375  12.8377  15.3821  15.4702
    16.4814  16.7735  17.1644  17.1644  20.2695  22.0074  22.0074  23.0114

          k = 0.0000 0.3500 0.0000 (  3683 PWs)   bands (ev):

   -24.0412 -11.5872 -11.3570 -10.7924 -10.7924 -10.7772  -8.4758  -7.0436
    -5.9819  -5.9819  -5.6819  -5.6633   4.4117   4.4117   4.4533   6.8652
     7.6237   7.9210   7.9210   8.1130   8.1130  13.1063  15.4793  15.5763
    16.5053  17.0444  17.2533  17.2533  20.0431  22.0342  22.0342  22.6132

          k = 0.0000 0.3750 0.0000 (  3699 PWs)   bands (ev):

   -24.0406 -11.5872 -11.3393 -10.7936 -10.7936 -10.7774  -8.4232  -7.1506
    -5.9795  -5.9795  -5.6806  -5.6589   4.4203   4.4203   4.4717   6.7857
     7.5898   7.9124   7.9125   8.0897   8.0897  13.3583  15.5645  15.6717
    16.5270  17.3246  17.3333  17.3333  19.8171  22.0685  22.0685  22.2366

          k = 0.0000 0.4000 0.0000 (  3695 PWs)   bands (ev):

   -24.0401 -11.5869 -11.3239 -10.7947 -10.7947 -10.7773  -8.3691  -7.2509
    -5.9774  -5.9774  -5.6795  -5.6551   4.4276   4.4276   4.4885   6.7186
     7.5613   7.9068   7.9068   8.0684   8.0684  13.5855  15.6352  15.7538
    16.5458  17.4024  17.4024  17.6103  19.5942  21.8918  22.1101  22.1101

          k = 0.0000 0.4250 0.0000 (  3692 PWs)   bands (ev):

   -24.0396 -11.5867 -11.3118 -10.7954 -10.7954 -10.7773  -8.3167  -7.3403
    -5.9758  -5.9758  -5.6786  -5.6520   4.4335   4.4335   4.5026   6.6649
     7.5387   7.9038   7.9038   8.0499   8.0499  13.7787  15.6895  15.8204
    16.5611  17.4584  17.4584  17.8965  19.3754  21.5917  22.1577  22.1577

          k = 0.0000 0.4500 0.0000 (  3692 PWs)   bands (ev):

   -24.0393 -11.5866 -11.3028 -10.7960 -10.7960 -10.7772  -8.2709  -7.4133
    -5.9746  -5.9746  -5.6779  -5.6498   4.4378   4.4378   4.5135   6.6257
     7.5222   7.9026   7.9026   8.0353   8.0353  13.9277  15.7272  15.8694
    16.5725  17.4997  17.4997  18.1772  19.1583  21.3537  22.2071  22.2071

          k = 0.0000 0.4750 0.0000 (  3684 PWs)   bands (ev):

   -24.0391 -11.5865 -11.2975 -10.7962 -10.7962 -10.7771  -8.2384  -7.4623
    -5.9738  -5.9738  -5.6775  -5.6484   4.4404   4.4404   4.5203   6.6019
     7.5122   7.9025   7.9025   8.0259   8.0259  14.0224  15.7488  15.8994
    16.5795  17.5250  17.5250  18.4452  18.9372  21.1984  22.2491  22.2491

          k = 0.0000 0.5000 0.0000 (  3668 PWs)   bands (ev):

   -24.0390 -11.5864 -11.2953 -10.7961 -10.7961 -10.7771  -8.2265  -7.4797
    -5.9736  -5.9736  -5.6773  -5.6480   4.4412   4.4412   4.5226   6.5940
     7.5088   7.9026   7.9026   8.0226   8.0226  14.0549  15.7558  15.9095
    16.5818  17.5335  17.5335  18.6655  18.7344  21.1442  22.2669  22.2669

          k = 0.0250 0.5000 0.0000 (  3676 PWs)   bands (ev):

   -24.0390 -11.5852 -11.2945 -10.7963 -10.7961 -10.7773  -8.2249  -7.4814
    -5.9735  -5.9723  -5.6833  -5.6490   4.2702   4.4436   4.7005   6.5914
     7.4959   7.9002   7.9213   8.0200   8.0235  14.0614  15.7636  15.9140
    16.5879  17.5204  17.5338  18.6767  18.7309  21.1089  22.1167  22.2469

          k = 0.0500 0.5000 0.0000 (  3684 PWs)   bands (ev):

   -24.0388 -11.5812 -11.2918 -10.7968 -10.7962 -10.7776  -8.2201  -7.4864
    -5.9731  -5.9684  -5.7013  -5.6518   4.0724   4.4507   4.9187   6.5833
     7.4639   7.8929   7.9707   8.0122   8.0262  14.0808  15.7865  15.9280
    16.6060  17.4829  17.5349  18.7082  18.7204  21.0123  21.8941  22.1888

          k = 0.0750 0.5000 0.0000 (  3672 PWs)   bands (ev):

   -24.0385 -11.5749 -11.2872 -10.7971 -10.7960 -10.7778  -8.2121  -7.4946
    -5.9725  -5.9620  -5.7313  -5.6561   3.8826   4.4624   5.1419   6.5692
     7.4254   7.8810   7.9992   8.0310   8.0388  14.1132  15.8234  15.9521
    16.6356  17.4254  17.5367  18.7030  18.7555  20.8741  21.6732  22.0972

          k = 0.1000 0.5000 0.0000 (  3678 PWs)   bands (ev):

   -24.0382 -11.5664 -11.2806 -10.7979 -10.7960 -10.7785  -8.2009  -7.5056
    -5.9716  -5.9535  -5.7728  -5.6618   3.7025   4.4784   5.3671   6.5484
     7.3889   7.8648   7.9814   8.0377   8.1172  14.1588  15.8716  15.9886
    16.6761  17.3533  17.5391  18.6789  18.8126  20.7125  21.4612  21.9787

          k = 0.1250 0.5000 0.0000 (  3682 PWs)   bands (ev):

   -24.0377 -11.5564 -11.2719 -10.7988 -10.7959 -10.7794  -8.1864  -7.5191
    -5.9706  -5.9430  -5.8251  -5.6688   3.5331   4.4985   5.5922   6.5205
     7.3595   7.8449   7.9590   8.0465   8.2010  14.2178  15.9261  16.0415
    16.7266  17.2716  17.5420  18.6483  18.8736  20.5403  21.2601  21.8404

          k = 0.1500 0.5000 0.0000 (  3688 PWs)   bands (ev):

   -24.0371 -11.5453 -11.2608 -10.7998 -10.7957 -10.7804  -8.1687  -7.5348
    -5.9694  -5.9309  -5.8873  -5.6769   3.3748   4.5225   5.8148   6.4856
     7.3395   7.8217   7.9324   8.0573   8.2872  14.2902  15.9816  16.1153
    16.7858  17.1843  17.5456  18.6115  18.9327  20.3659  21.0707  21.6896

          k = 0.1750 0.5000 0.0000 (  3680 PWs)   bands (ev):

   -24.0365 -11.5334 -11.2471 -10.8008 -10.7955 -10.7815  -8.1476  -7.5520
    -5.9680  -5.9584  -5.9177  -5.6861   3.2280   4.5498   6.0325   6.4446
     7.3292   7.7960   7.9021   8.0705   8.3740  14.3764  16.0363  16.2102
    16.8524  17.0949  17.5496  18.5690  18.9842  20.1951  20.8936  21.5336

          k = 0.2000 0.5000 0.0000 (  3692 PWs)   bands (ev):

   -24.0358 -11.5218 -11.2311 -10.8020 -10.7955 -10.7828  -8.1233  -7.5704
    -6.0372  -5.9665  -5.9036  -5.6960   3.0930   4.5799   6.2427   6.3988
     7.3281   7.7684   7.8687   8.0861   8.4597  14.4762  16.0916  16.3233
    16.9249  17.0061  17.5540  18.5212  19.0216  20.0319  20.7291  21.3800

          k = 0.2250 0.5000 0.0000 (  3692 PWs)   bands (ev):

   -24.0351 -11.5105 -11.2126 -10.8031 -10.7953 -10.7842  -8.0957  -7.5895
    -6.1224  -5.9649  -5.8890  -5.7065   2.9697   4.6123   6.3499   6.4427
     7.3347   7.7396   7.8328   8.1046   8.5433  14.5896  16.1486  16.4513
    16.9204  17.0015  17.5586  18.4692  19.0377  19.8796  20.5774  21.2368

          k = 0.2500 0.5000 0.0000 (  3712 PWs)   bands (ev):

   -24.0344 -11.5003 -11.1920 -10.8046 -10.7953 -10.7857  -8.0648  -7.6087
    -6.2128  -5.9633  -5.8744  -5.7173   2.8581   4.6463   6.2999   6.6299
     7.3472   7.7104   7.7951   8.1259   8.6236  14.7160  16.2076  16.5914
    16.8401  17.0804  17.5635  18.4140  19.0250  19.7404  20.4386  21.1121

          k = 0.2750 0.5000 0.0000 (  3686 PWs)   bands (ev):

   -24.0337 -11.4908 -11.1695 -10.8056 -10.7950 -10.7868  -8.0307  -7.6276
    -6.3065  -5.9617  -5.8601  -5.7281   2.7583   4.6812   6.2504   6.8018
     7.3641   7.6816   7.7567   8.1505   8.6998  14.8544  16.2682  16.7405
    16.7675  17.1598  17.5685  18.3578  18.9765  19.6162  20.3130  21.0129

          k = 0.3000 0.5000 0.0000 (  3684 PWs)   bands (ev):

   -24.0330 -11.4827 -11.1463 -10.8067 -10.7948 -10.7881  -7.9937  -7.6457
    -6.4021  -5.9601  -5.8464  -5.7386   2.6698   4.7161   6.2027   6.9560
     7.3835   7.6537   7.7182   8.1782   8.7708  15.0031  16.3295  16.7053
    16.8946  17.2377  17.5734  18.3035  18.8883  19.5081  20.2005  20.9432

          k = 0.3250 0.5000 0.0000 (  3688 PWs)   bands (ev):

   -24.0323 -11.4758 -11.1231 -10.8078 -10.7947 -10.7894  -7.9540  -7.6627
    -6.4978  -5.9586  -5.8336  -5.7487   2.5925   4.7501   6.1582   7.0908
     7.4042   7.6274   7.6808   8.2088   8.8357  15.1589  16.3905  16.6568
    17.0481  17.3121  17.5781  18.2560  18.7610  19.4169  20.1011  20.9024

          k = 0.3500 0.5000 0.0000 (  3688 PWs)   bands (ev):

   -24.0317 -11.4701 -11.1005 -10.8088 -10.7945 -10.7906  -7.9123  -7.6782
    -6.5914  -5.9572  -5.8219  -5.7581   2.5262   4.7823   6.1178   7.2051
     7.4246   7.6034   7.6454   8.2416   8.8939  15.3169  16.4499  16.6269
    17.1927  17.3812  17.5825  18.2222  18.5992  19.3431  20.0150  20.8861

          k = 0.3750 0.5000 0.0000 (  3688 PWs)   bands (ev):

   -24.0311 -11.4654 -11.0795 -10.8098 -10.7944 -10.7916  -7.8695  -7.6918
    -6.6808  -5.9560  -5.8117  -5.7665   2.4706   4.8116   6.0824   7.2987
     7.4439   7.5822   7.6131   8.2750   8.9445  15.4694  16.5062  16.6221
    17.3166  17.4431  17.5866  18.2111  18.4105  19.2870  19.9422  20.8872

          k = 0.4000 0.5000 0.0000 (  3680 PWs)   bands (ev):

   -24.0306 -11.4617 -11.0610 -10.8104 -10.7942 -10.7923  -7.8273  -7.7034
    -6.7630  -5.9549  -5.8031  -5.7736   2.4255   4.8373   6.0526   7.3723
     7.4610   7.5642   7.5850   8.3072   8.9869  15.6056  16.5575  16.6509
    17.4078  17.4963  17.5900  18.2033  18.2304  19.2488  19.8826  20.8985

          k = 0.4250 0.5000 0.0000 (  3676 PWs)   bands (ev):

   -24.0302 -11.4589 -11.0457 -10.8109 -10.7941 -10.7931  -7.7880  -7.7126
    -6.8345  -5.9541  -5.7962  -5.7794   2.3906   4.8583   6.0289   7.4273
     7.4750   7.5498   7.5619   8.3356   9.0206  15.7139  16.6015  16.7211
    17.4617  17.5393  17.5929  17.9870  18.2777  19.2283  19.8362  20.9138

          k = 0.4500 0.5000 0.0000 (  3676 PWs)   bands (ev):

   -24.0300 -11.4569 -11.0343 -10.8113 -10.7941 -10.7936  -7.7551  -7.7193
    -6.8911  -5.9534  -5.7912  -5.7836   2.3658   4.8740   6.0117   7.4650
     7.4856   7.5393   7.5448   8.3579   9.0449  15.7878  16.6357  16.8314
    17.4859  17.5709  17.5949  17.7734  18.3361  19.2233  19.8031  20.9281

          k = 0.4750 0.5000 0.0000 (  3672 PWs)   bands (ev):

   -24.0298 -11.4558 -11.0272 -10.8114 -10.7941 -10.7939  -7.7327  -7.7234
    -6.9280  -5.9531  -5.7881  -5.7862   2.3510   4.8836   6.0013   7.4871
     7.4920   7.5330   7.5342   8.3722   9.0597  15.8285  16.6576  16.9596
    17.4936  17.5857  17.5902  17.5962  18.3825  19.2273  19.7832  20.9381

          k = 0.5000 0.5000 0.0000 (  3676 PWs)   bands (ev):

   -24.0297 -11.4554 -11.0250 -10.8115 -10.7941 -10.7941  -7.7247  -7.7247
    -6.9409  -5.9529  -5.7871  -5.7871   2.3460   4.8868   5.9978   7.4942
     7.4942   7.5307   7.5307   8.3771   9.0646  15.8412  16.6651  17.0312
    17.4949  17.4949  17.5967  17.5967  18.4000  19.2304  19.7766  20.9416

          k = 0.4750 0.4750 0.0000 (  3666 PWs)   bands (ev):

   -24.0298 -11.4561 -11.0294 -10.8114 -10.7939 -10.7938  -7.7481  -7.7140
    -6.9156  -5.9532  -5.7879  -5.7866   2.3559   4.8804   6.0048   7.4808
     7.4889   7.5341   7.5387   8.3674   9.0549  15.8147  16.6478  16.9074
    17.5122  17.5890  17.5904  17.6384  18.3661  19.2250  19.7899  20.9769

          k = 0.4500 0.4500 0.0000 (  3674 PWs)   bands (ev):

   -24.0302 -11.4584 -11.0436 -10.8109 -10.7937 -10.7936  -7.8101  -7.6824
    -6.8485  -5.9540  -5.7903  -5.7849   2.3852   4.8614   6.0257   7.4390
     7.4736   7.5437   7.5627   8.3398   9.0273  15.7190  16.5695  16.7653
    17.5485  17.5662  17.5716  17.8658  18.2888  19.2308  19.8297  21.0741

          k = 0.4250 0.4250 0.0000 (  3678 PWs)   bands (ev):

   -24.0308 -11.4621 -11.0661 -10.8101 -10.7933 -10.7931  -7.8950  -7.6307
    -6.7556  -5.9553  -5.7940  -5.7823   2.4335   4.8314   6.0606   7.3646
     7.4512   7.5597   7.6005   8.2994   8.9863  15.5276  16.4408  16.7240
    17.5287  17.5401  17.5460  18.0279  18.2443  19.3060  19.8965  21.2139

          k = 0.4000 0.4000 0.0000 (  3666 PWs)   bands (ev):

   -24.0315 -11.4671 -11.0957 -10.8089 -10.7926 -10.7922  -7.9901  -7.5606
    -6.6505  -5.9571  -5.7985  -5.7787   2.4999   4.7926   6.1095   7.2531
     7.4258   7.5818   7.6500   8.2536   8.9366  15.2488  16.3252  16.7258
    17.4338  17.4771  17.4959  18.0710  18.3189  19.5001  19.9905  21.3747

          k = 0.3750 0.3750 0.0000 (  3682 PWs)   bands (ev):

   -24.0325 -11.4736 -11.1315 -10.8074 -10.7921 -10.7916  -8.0878  -7.4741
    -6.5423  -5.9594  -5.8031  -5.7742   2.5831   4.7473   6.1723   7.1017
     7.4021   7.6094   7.7083   8.2100   8.8823  14.9158  16.2135  16.7419
    17.2267  17.4125  17.4388  18.0150  18.5063  19.8010  20.1121  21.5376

          k = 0.3500 0.3500 0.0000 (  3686 PWs)   bands (ev):

   -24.0336 -11.4811 -11.1718 -10.8054 -10.7912 -10.7906  -8.1835  -7.3735
    -6.4372  -5.9623  -5.8070  -5.7689   2.6819   4.6981   6.2492   6.9127
     7.3851   7.6423   7.7723   8.1738   8.8260  14.5539  16.0928  16.7498
    16.9732  17.3362  17.3691  17.9088  18.7603  20.1684  20.2611  21.6870

          k = 0.3250 0.3250 0.0000 (  3692 PWs)   bands (ev):

   -24.0349 -11.4897 -11.2147 -10.8032 -10.7903 -10.7897  -8.2743  -7.2613
    -6.3398  -5.9657  -5.8088  -5.7631   2.7945   4.6472   6.3404   6.6922
     7.3793   7.6797   7.8394   8.1468   8.7691  14.1764  15.9605  16.7000
    16.7269  17.2497  17.2878  17.7865  19.0531  20.4370  20.5733  21.8125

          k = 0.3000 0.3000 0.0000 (  3686 PWs)   bands (ev):

   -24.0363 -11.4991 -11.2591 -10.8009 -10.7890 -10.7884  -8.3587  -7.1400
    -6.2539  -5.9696  -5.8074  -5.7567   2.9191   4.5967   6.4461   6.4491
     7.3881   7.7209   7.9071   8.1286   8.7125  13.7905  15.8180  16.4207
    16.6586  17.1549  17.1960  17.6635  19.3686  20.6380  20.9962  21.9126

          k = 0.2750 0.2750 0.0000 (  3690 PWs)   bands (ev):

   -24.0378 -11.5092 -11.3037 -10.7984 -10.7878 -10.7871  -8.4355  -7.0125
    -6.1824  -5.9739  -5.8013  -5.7500   3.0538   4.5482   6.1921   6.5665
     7.4136   7.7651   7.9733   8.1179   8.6571  13.4005  15.6678  16.1431
    16.5427  17.0539  17.0957  17.5398  19.6953  20.8602  21.4112  22.0053

          k = 0.2500 0.2500 0.0000 (  3708 PWs)   bands (ev):

   -24.0394 -11.5197 -11.3477 -10.7959 -10.7867 -10.7860  -8.5043  -6.8815
    -6.1271  -5.9785  -5.7899  -5.7432   3.1965   4.5028   5.9296   6.7019
     7.4566   7.8113   8.0363   8.1133   8.6035  13.0097  15.5125  15.8728
    16.3882  16.9491  16.9893  17.4076  20.0238  21.0965  21.7349  22.1732

          k = 0.2250 0.2250 0.0000 (  3696 PWs)   bands (ev):

   -24.0409 -11.5302 -11.3895 -10.7930 -10.7852 -10.7847  -8.5647  -6.7499
    -6.0875  -5.9834  -5.7736  -5.7363   3.3447   4.4615   5.6691   6.8524
     7.5164   7.8585   8.0949   8.1134   8.5527  12.6209  15.3542  15.6143
    16.2078  16.8429  16.8797  17.2607  20.3463  21.3340  21.8662  22.5194

          k = 0.2000 0.2000 0.0000 (  3709 PWs)   bands (ev):

   -24.0425 -11.5408 -11.4289 -10.7904 -10.7840 -10.7836  -8.6169  -6.6205
    -6.0612  -5.9884  -5.7551  -5.7296   3.4955   4.4247   5.4171   7.0176
     7.5905   7.9056   8.1167   8.1480   8.5057  12.2369  15.1951  15.3713
    16.0124  16.7381  16.7700  17.0997  20.6553  21.5520  21.9085  22.8190

          k = 0.1750 0.1750 0.0000 (  3707 PWs)   bands (ev):

   -24.0440 -11.5508 -11.4648 -10.7877 -10.7829 -10.7823  -8.6611  -6.4964
    -6.0444  -5.9933  -5.7372  -5.7233   3.6458   4.3928   5.1796   7.1966
     7.6756   7.9513   8.1218   8.1953   8.4638  11.8608  15.0379  15.1474
    15.8108  16.6373  16.6634  16.9316  20.9442  21.7259  21.9292  22.9821

          k = 0.1500 0.1500 0.0000 (  3711 PWs)   bands (ev):

   -24.0453 -11.5602 -11.4969 -10.7853 -10.7818 -10.7813  -8.6978  -6.3805
    -6.0337  -5.9980  -5.7223  -5.7174   3.7915   4.3657   4.9618   7.3874
     7.7673   7.9943   8.1273   8.2364   8.4279  11.4961  14.8857  14.9457
    15.6105  16.5431  16.5634  16.7668  21.2070  21.8435  21.9440  23.2300

          k = 0.1250 0.1250 0.0000 (  3723 PWs)   bands (ev):

   -24.0466 -11.5688 -11.5249 -10.7831 -10.7808 -10.7804  -8.7274  -6.2760
    -6.0266  -6.0024  -5.7122  -5.7115   3.9279   4.3435   4.7683   7.5867
     7.8603   8.0334   8.1318   8.2711   8.3991  11.1474  14.7425  14.7692
    15.4188  16.4583  16.4729  16.6153  21.4382  21.9136  21.9569  23.5475

          k = 0.1000 0.1000 0.0000 (  3741 PWs)   bands (ev):

   -24.0476 -11.5764 -11.5483 -10.7815 -10.7799 -10.7796  -8.7505  -6.1857
    -6.0218  -6.0062  -5.7077  -5.7046   4.0501   4.3258   4.6036   7.7885
     7.9496   8.0674   8.1343   8.2992   8.3776  10.8209  14.6130  14.6205
    15.2445  16.3851  16.3947  16.4851  21.6333  21.9527  21.9686  23.9075

          k = 0.0750 0.0750 0.0000 (  3731 PWs)   bands (ev):

   -24.0485 -11.5823 -11.5664 -10.7799 -10.7791 -10.7788  -8.7677  -6.1123
    -6.0182  -6.0093  -5.7040  -5.7010   4.1527   4.3124   4.4714   7.9779
     8.0352   8.0951   8.1350   8.3211   8.3632  10.5264  14.5022  14.5030
    15.0965  16.3258  16.3313  16.3813  21.7887  21.9743  21.9786  24.2788

          k = 0.0500 0.0500 0.0000 (  3739 PWs)   bands (ev):

   -24.0491 -11.5869 -11.5797 -10.7789 -10.7784 -10.7783  -8.7796  -6.0581
    -6.0157  -6.0117  -5.7013  -5.6995   4.2305   4.3030   4.3746   8.0773
     8.1157   8.1342   8.1730   8.3366   8.3545  10.2798  14.4161  14.4183
    14.9838  16.2821  16.2846  16.3064  21.9015  21.9859  21.9861  24.6223

          k = 0.0250 0.0250 0.0000 (  3743 PWs)   bands (ev):

   -24.0495 -11.5896 -11.5878 -10.7781 -10.7780 -10.7780  -8.7866  -6.0248
    -6.0141  -6.0131  -5.6997  -5.6992   4.2792   4.2975   4.3155   8.1188
     8.1285   8.1329   8.3000   8.3459   8.3501  10.1078  14.3639  14.3647
    14.9132  16.2553  16.2559  16.2613  21.9699  21.9912  21.9912  24.8800

          k = 0.0000 0.0000 0.0000 (  3743 PWs)   bands (ev):

   -24.0496 -11.5905 -11.5905 -10.7779 -10.7779 -10.7779  -8.7889  -6.0136
    -6.0136  -6.0136  -5.6991  -5.6991   4.2957   4.2957   4.2957   8.1326
     8.1326   8.1326   8.3489   8.3489   8.3489  10.0444  14.3463  14.3463
    14.8892  16.2463  16.2463  16.2463  21.9928  21.9928  21.9928  24.9789

          k = 0.0250 0.0250 0.0250 (  3743 PWs)   bands (ev):

   -24.0494 -11.5878 -11.5878 -10.7782 -10.7781 -10.7781  -8.7854  -6.0245
    -6.0245  -6.0086  -5.6996  -5.6996   4.2619   4.3165   4.3165   8.1167
     8.1167   8.1381   8.2747   8.3487   8.3487  10.1381  14.3732  14.3732
    14.9251  16.2628  16.2628  16.2639  21.9691  21.9691  22.0008  24.8124

          k = 0.0500 0.0500 0.0500 (  3737 PWs)   bands (ev):

   -24.0489 -11.5797 -11.5797 -10.7790 -10.7788 -10.7787  -8.7750  -6.0563
    -6.0563  -5.9940  -5.7017  -5.7017   4.1632   4.3783   4.3783   8.0695
     8.0695   8.0895   8.1546   8.3496   8.3496  10.3814  14.4516  14.4516
    15.0284  16.3115  16.3115  16.3176  21.8987  21.8987  22.0224  24.4002

          k = 0.0750 0.0750 0.0750 (  3731 PWs)   bands (ev):

   -24.0479 -11.5663 -11.5663 -10.7800 -10.7799 -10.7799  -8.7570  -6.1067
    -6.1067  -5.9712  -5.7068  -5.7068   4.0068   4.4800   4.4800   7.8530
     7.9940   7.9940   8.1818   8.3535   8.3535  10.7133  14.5755  14.5755
    15.1872  16.3896  16.3896  16.4107  21.7836  21.7836  22.0491  23.8794

          k = 0.1000 0.1000 0.1000 (  3707 PWs)   bands (ev):

   -24.0466 -11.5476 -11.5476 -10.7812 -10.7812 -10.7812  -8.7309  -6.1729
    -6.1729  -5.9424  -5.7161  -5.7161   3.8027   4.6198   4.6198   7.6029
     7.8962   7.8962   8.2192   8.3618   8.3618  11.0947  14.7362  14.7362
    15.3823  16.4925  16.4925  16.5487  21.6281  21.6281  22.0592  23.3429

          k = 0.1250 0.1250 0.1250 (  3707 PWs)   bands (ev):

   -24.0451 -11.5242 -11.5242 -10.7831 -10.7831 -10.7828  -8.6959  -6.2522
    -6.2522  -5.9105  -5.7305  -5.7305   3.5614   4.7948   4.7948   7.3596
     7.7835   7.7835   8.2660   8.3748   8.3748  11.5041  14.9239  14.9239
    15.5908  16.6126  16.6126  16.7374  21.4387  21.4387  21.9939  22.8772

          k = 0.1500 0.1500 0.1500 (  3710 PWs)   bands (ev):

   -24.0433 -11.4962 -11.4962 -10.7853 -10.7853 -10.7849  -8.6511  -6.3420
    -6.3420  -5.8785  -5.7499  -5.7499   3.2933   5.0019   5.0019   7.1347
     7.6635   7.6635   8.3215   8.3930   8.3930  11.9286  15.1286  15.1286
    15.7918  16.7395  16.7395  16.9790  21.2249  21.2249  21.7427  22.5973

          k = 0.1750 0.1750 0.1750 (  3689 PWs)   bands (ev):

   -24.0412 -11.4635 -11.4635 -10.7875 -10.7875 -10.7871  -8.5960  -6.4399
    -6.4399  -5.8494  -5.7744  -5.7744   3.0069   5.2375   5.2375   6.9362
     7.5427   7.5427   8.3846   8.4168   8.4168  12.3592  15.3407  15.3407
    15.9726  16.8603  16.8603  17.2655  20.9992  20.9992  21.3277  22.4753

          k = 0.2000 0.2000 0.2000 (  3686 PWs)   bands (ev):

   -24.0391 -11.4272 -11.4272 -10.7902 -10.7902 -10.7894  -8.5299  -6.5435
    -6.5435  -5.8262  -5.8033  -5.8033   2.7096   5.4973   5.4973   6.7695
     7.4266   7.4266   8.4466   8.4466   8.4538  12.7877  15.5492  15.5492
[...]
     7.2178   7.2178   8.6917   8.6917   8.8367  14.4851  15.8062  15.8062
    16.8105  17.3256  17.3256  18.6064  19.4055  19.9993  19.9993  21.6612

          k = 0.3500 0.3500 0.3500 (  3701 PWs)   bands (ev):

   -24.0265 -11.1691 -11.1691 -10.8086 -10.8086 -10.8059  -7.9304  -7.1590
    -7.1590  -6.0190  -6.0190  -5.8971   1.0108   6.4896   6.8066   6.8066
     7.4420   7.4420   8.7586   8.7586   8.9073  14.6174  15.5991  15.5991
    17.0273  17.4692  17.4692  18.4977  19.4108  19.8917  19.8917  21.5906

          k = 0.3750 0.3750 0.3750 (  3683 PWs)   bands (ev):

   -24.0249 -11.1293 -11.1293 -10.8110 -10.8110 -10.8085  -7.8130  -7.2405
    -7.2405  -6.0513  -6.0513  -5.9436   0.7903   6.5322   6.7878   6.7878
     7.6993   7.6993   8.8306   8.8306   8.9713  14.6673  15.3549  15.3549
    17.2896  17.6160  17.6160  18.3433  19.4478  19.7862  19.7862  21.5596

          k = 0.4000 0.4000 0.4000 (  3695 PWs)   bands (ev):

   -24.0236 -11.0942 -11.0942 -10.8133 -10.8133 -10.8117  -7.7003  -7.3105
    -7.3105  -6.0795  -6.0795  -5.9947   0.6014   6.5826   6.7631   6.7631
     7.9383   7.9383   8.9070   8.9071   9.0267  14.6588  15.1051  15.1051
    17.5755  17.7501  17.7501  18.1909  19.4771  19.6856  19.6856  21.5555

          k = 0.4250 0.4250 0.4250 (  3677 PWs)   bands (ev):

   -24.0225 -11.0649 -11.0649 -10.8148 -10.8148 -10.8139  -7.5989  -7.3671
    -7.3671  -6.1024  -6.1024  -6.0458   0.4489   6.6328   6.7417   6.7417
     8.1361   8.1361   8.9855   8.9855   9.0718  14.6203  14.8762  14.8762
    17.8511  17.8612  17.8612  18.0639  19.4894  19.5967  19.5967  21.5642

          k = 0.4500 0.4500 0.4500 (  3680 PWs)   bands (ev):

   -24.0217 -11.0430 -11.0430 -10.8162 -10.8162 -10.8157  -7.5166  -7.4089
    -7.4089  -6.1194  -6.1194  -6.0907   0.3368   6.6750   6.7258   6.7258
     8.2796   8.2796   9.0584   9.0584   9.1051  14.5756  14.6918  14.6918
    17.9432  17.9432  17.9463  18.1095  19.4857  19.5271  19.5271  21.5752

          k = 0.4750 0.4750 0.4750 (  3648 PWs)   bands (ev):

   -24.0212 -11.0290 -11.0290 -10.8167 -10.8167 -10.8166  -7.4622  -7.4344
    -7.4344  -6.1298  -6.1298  -6.1220   0.2683   6.7032   6.7162   6.7162
     8.3646   8.3646   9.1123   9.1124   9.1255  14.5421  14.5715  14.5716
    17.8899  17.9930  17.9930  18.2702  19.4742  19.4830  19.4830  21.5830

          k = 0.5000 0.5000 0.5000 (  3648 PWs)   bands (ev):

   -24.0210 -11.0244 -11.0244 -10.8170 -10.8170 -10.8170  -7.4430  -7.4430
    -7.4430  -6.1334  -6.1334  -6.1334   0.2452   6.7130   6.7130   6.7130
     8.3924   8.3924   9.1324   9.1324   9.1324  14.5298  14.5298  14.5298
    17.8694  18.0097  18.0097  18.3298  19.4679  19.4679  19.4679  21.5856

          k = 0.4750 0.5000 0.4750 (  3648 PWs)   bands (ev):

   -24.0211 -11.0290 -11.0259 -10.8169 -10.8168 -10.8167  -7.4509  -7.4474
    -7.4323  -6.1324  -6.1283  -6.1271   0.2606   6.7059   6.7145   6.7164
     8.3647   8.3831   9.1171   9.1197   9.1287  14.5406  14.5528  14.5601
    17.8831  17.9910  18.0064  18.2900  19.4646  19.4789  19.4844  21.5761

          k = 0.4500 0.5000 0.4500 (  3682 PWs)   bands (ev):

   -24.0215 -11.0431 -11.0307 -10.8166 -10.8166 -10.8162  -7.4737  -7.4596
    -7.4002  -6.1296  -6.1135  -6.1091   0.3065   6.6848   6.7191   6.7265
     8.2811   8.3553   9.0750   9.0824   9.1177  14.5722  14.6203  14.6483
    17.9215  17.9355  17.9985  18.1794  19.4538  19.5045  19.5347  21.5469

          k = 0.4250 0.5000 0.4250 (  3676 PWs)   bands (ev):

   -24.0220 -11.0649 -11.0383 -10.8160 -10.8155 -10.8148  -7.5098  -7.4782
    -7.3479  -6.1249  -6.0904  -6.0812   0.3824   6.6520   6.7269   6.7429
     8.1416   8.3095   9.0149   9.0236   9.0992  14.6223  14.7274  14.7864
    17.8472  17.9558  18.0121  18.0185  19.4334  19.5326  19.6168  21.4964

          k = 0.4000 0.5000 0.4000 (  3676 PWs)   bands (ev):

   -24.0227 -11.0939 -11.0487 -10.8152 -10.8141 -10.8129  -7.5565  -7.5008
    -7.2768  -6.1184  -6.0609  -6.0466   0.4869   6.6106   6.7382   6.7648
     7.9500   8.2467   8.9454   8.9469   9.0732  14.6865  14.8670  14.9635
    17.7312  17.8285  17.9375  18.0930  19.3992  19.5534  19.7293  21.4233

          k = 0.3750 0.5000 0.3750 (  3680 PWs)   bands (ev):

   -24.0236 -11.1289 -11.0619 -10.8142 -10.8125 -10.8107  -7.6112  -7.5248
    -7.1888  -6.1105  -6.0268  -6.0084   0.6187   6.5644   6.7532   6.7908
     7.7147   8.1682   8.8577   8.8707   9.0394  14.7585  15.0301  15.1683
    17.5933  17.6284  17.9028  18.2017  19.3461  19.5629  19.8695  21.3273

          k = 0.3500 0.5000 0.3500 (  3680 PWs)   bands (ev):

   -24.0247 -11.1684 -11.0774 -10.8129 -10.8106 -10.8079  -7.6710  -7.5480
    -7.0863  -6.1011  -5.9900  -5.9700   0.7757   6.5176   6.7725   6.8182
     7.4463   8.0767   8.7597   8.7936   8.9978  14.8296  15.2072  15.3903
    17.4356  17.4396  17.8601  18.3280  19.2693  19.5614  20.0340  21.2102

          k = 0.3250 0.5000 0.3250 (  3676 PWs)   bands (ev):

   -24.0258 -11.2108 -11.0948 -10.8115 -10.8086 -10.8050  -7.7336  -7.5684
    -6.9716  -6.0905  -5.9519  -5.9341   0.9561   6.4743   6.7964   6.8428
     7.1558   7.9764   8.6572   8.7147   8.9482  14.8883  15.3880  15.6209
    17.2668  17.2760  17.8117  18.4675  19.1678  19.5515  20.2189  21.0761

          k = 0.3000 0.5000 0.3000 (  3672 PWs)   bands (ev):

   -24.0271 -11.2549 -11.1139 -10.8100 -10.8065 -10.8018  -7.7968  -7.5845
    -6.8474  -6.0790  -5.9138  -5.9032   1.1576   6.4381   6.8253   6.8527
     6.8570   7.8746   8.5538   8.6350   8.8906  14.9220  15.5619  15.8533
    17.1080  17.1369  17.7588  18.6147  19.0489  19.5366  20.4196  20.9316

          k = 0.2750 0.5000 0.2750 (  3680 PWs)   bands (ev):

   -24.0285 -11.2994 -11.1343 -10.8085 -10.8047 -10.7986  -7.8588  -7.5953
    -6.7164  -6.0669  -5.8793  -5.8764   1.3781   6.4120   6.5453   6.8490
     6.8597   7.7829   8.4524   8.5553   8.8251  14.9197  15.7188  16.0819
    16.9403  17.0575  17.6999  18.7397  18.9521  19.5190  20.6310  20.7859

          k = 0.2500 0.5000 0.2500 (  3708 PWs)   bands (ev):

   -24.0299 -11.3432 -11.1557 -10.8071 -10.8032 -10.7958  -7.9184  -7.6000
    -6.5814  -6.0545  -5.8635  -5.8406   1.6152   6.2405   6.3976   6.8026
     6.8999   7.7167   8.3556   8.4769   8.7517  14.8770  15.8495  16.3027
    16.7773  17.0312  17.6285  18.7101  19.0276  19.4982  20.6528  20.8479

          k = 0.2250 0.5000 0.2250 (  3706 PWs)   bands (ev):

   -24.0313 -11.3850 -11.1770 -10.8054 -10.8017 -10.7927  -7.9742  -7.5987
    -6.4454  -6.0419  -5.8563  -5.8068   1.8670   5.9446   6.3958   6.7056
     6.9464   7.6881   8.2655   8.4011   8.6711  14.7986  15.9473  16.5125
    16.6226  17.0505  17.5338  18.6168  19.2079  19.4679  20.5512  21.0650

          k = 0.2000 0.5000 0.2000 (  3708 PWs)   bands (ev):

   -24.0327 -11.4245 -11.1981 -10.8038 -10.8005 -10.7896  -8.0256  -7.5916
    -6.3114  -6.0297  -5.8576  -5.7754   2.1313   5.6631   6.4061   6.5574
     6.9992   7.6967   8.1838   8.3292   8.5838  14.6953  16.0090  16.4791
    16.7087  17.1016  17.4072  18.5554  19.4161  19.4165  20.5050  21.2772

          k = 0.1750 0.5000 0.1750 (  3712 PWs)   bands (ev):

   -24.0340 -11.4606 -11.2183 -10.8023 -10.7994 -10.7870  -8.0718  -7.5794
    -6.1825  -6.0180  -5.8665  -5.7469   2.4061   5.4007   6.3672   6.4267
     7.0584   7.7326   8.1119   8.2624   8.4908  14.5793  16.0350  16.3490
    16.8889  17.1697  17.2528  18.5380  19.3343  19.6431  20.5341  21.4797

          k = 0.1500 0.5000 0.1500 (  3708 PWs)   bands (ev):

   -24.0353 -11.4928 -11.2370 -10.8009 -10.7985 -10.7844  -8.1123  -7.5633
    -6.0619  -6.0072  -5.8816  -5.7216   2.6896   5.1622   6.1453   6.4549
     7.1238   7.7842   8.0509   8.2021   8.3932  14.4611  16.0285  16.2342
    17.0510  17.0872  17.2436  18.5551  19.2233  19.8864  20.6437  21.6679

          k = 0.1250 0.5000 0.1250 (  3694 PWs)   bands (ev):

   -24.0363 -11.5207 -11.2538 -10.7995 -10.7977 -10.7821  -8.1470  -7.5446
    -5.9975  -5.9527  -5.9009  -5.6996   2.9801   4.9518   5.9001   6.4875
     7.1948   7.8421   8.0011   8.1492   8.2926  14.3492  15.9941  16.1358
    16.9306  17.1928  17.3161  18.5916  19.0959  20.1422  20.8255  21.8374

          k = 0.1000 0.5000 0.1000 (  3698 PWs)   bands (ev):

   -24.0373 -11.5440 -11.2683 -10.7984 -10.7972 -10.7805  -8.1755  -7.5253
    -5.9892  -5.9219  -5.8582  -5.6813   3.2759   4.7734   5.6372   6.5204
     7.2702   7.8991   7.9626   8.1046   8.1913  14.2496  15.9391  16.0546
    16.7987  17.3123  17.3831  18.6345  18.9664  20.4044  21.0667  21.9841

          k = 0.0750 0.5000 0.0750 (  3680 PWs)   bands (ev):

   -24.0380 -11.5624 -11.2798 -10.7974 -10.7967 -10.7790  -8.1978  -7.5073
    -5.9825  -5.9420  -5.7812  -5.6668   3.5753   4.6306   5.3611   6.5502
     7.3478   7.9347   7.9496   8.0692   8.0925  14.1673  15.8743  15.9912
    16.6991  17.4076  17.4422  18.6749  18.8478  20.6626  21.3543  22.1040

          k = 0.0500 0.5000 0.0500 (  3680 PWs)   bands (ev):

   -24.0386 -11.5757 -11.2884 -10.7968 -10.7964 -10.7779  -8.2137  -7.4927
    -5.9776  -5.9587  -5.7242  -5.6564   3.8767   4.5262   5.0753   6.5738
     7.4225   7.9163   7.9889   8.0020   8.0434  14.1058  15.8137  15.9458
    16.6321  17.4771  17.4901  18.7070  18.7514  20.8976  21.6753  22.1932

          k = 0.0250 0.5000 0.0250 (  3676 PWs)   bands (ev):

   -24.0389 -11.5839 -11.2936 -10.7964 -10.7963 -10.7773  -8.2233  -7.4831
    -5.9746  -5.9697  -5.6892  -5.6501   4.1778   4.4627   4.7831   6.5889
     7.4834   7.9059   7.9314   8.0140   8.0279  14.0678  15.7711  15.9186
    16.5941  17.5194  17.5221  18.6878  18.7274  21.0750  22.0130  22.2482

          k = 0.0000 0.5000 0.0000 (  3668 PWs)   bands (ev):

   -24.0390 -11.5864 -11.2953 -10.7961 -10.7961 -10.7771  -8.2265  -7.4797
    -5.9736  -5.9736  -5.6773  -5.6480   4.4412   4.4412   4.5226   6.5940
     7.5088   7.9026   7.9026   8.0226   8.0226  14.0549  15.7558  15.9095
    16.5818  17.5335  17.5335  18.6655  18.7344  21.1442  22.2669  22.2669

          k = 0.5000 0.5000 0.0000 (  3676 PWs)   bands (ev):

   -24.0297 -11.4554 -11.0250 -10.8115 -10.7941 -10.7941  -7.7247  -7.7247
    -6.9409  -5.9529  -5.7871  -5.7871   2.3460   4.8868   5.9978   7.4942
     7.4942   7.5307   7.5307   8.3771   9.0646  15.8412  16.6651  17.0312
    17.4949  17.4949  17.5967  17.5967  18.4000  19.2304  19.7766  20.9416

          k = 0.5000 0.5000 0.0250 (  3676 PWs)   bands (ev):

   -24.0297 -11.4531 -11.0250 -10.8116 -10.7942 -10.7942  -7.7233  -7.7233
    -6.9435  -5.9541  -5.7889  -5.7889   2.3176   4.9226   6.0020   7.4275
     7.4275   7.6018   7.6018   8.3772   9.0651  15.8338  16.6707  17.0346
    17.3330  17.3330  17.7547  17.7547  18.3975  19.2202  19.7803  20.9452

          k = 0.5000 0.5000 0.0500 (  3660 PWs)   bands (ev):

   -24.0295 -11.4461 -11.0249 -10.8116 -10.7944 -10.7944  -7.7190  -7.7190
    -6.9514  -5.9575  -5.7944  -5.7944   2.2371   5.0248   6.0147   7.3499
     7.3499   7.6923   7.6923   8.3775   9.0663  15.8118  16.6874  17.0448
    17.1270  17.1270  17.9489  17.9489  18.3900  19.1902  19.7911  20.9558

          k = 0.5000 0.5000 0.0750 (  3668 PWs)   bands (ev):

   -24.0293 -11.4347 -11.0250 -10.8118 -10.7952 -10.7952  -7.7119  -7.7119
    -6.9645  -5.9631  -5.8035  -5.8035   2.1164   5.1813   6.0354   7.2763
     7.2763   7.7871   7.7871   8.3780   9.0683  15.7754  16.7151  16.9180
    16.9180  17.0625  18.1380  18.1380  18.3778  19.1416  19.8079  20.9731

          k = 0.5000 0.5000 0.1000 (  3680 PWs)   bands (ev):

   -24.0289 -11.4193 -11.0250 -10.8122 -10.7962 -10.7962  -7.7021  -7.7021
    -6.9825  -5.9707  -5.8159  -5.8159   1.9690   5.3781   6.0637   7.2074
     7.2074   7.8852   7.8852   8.3786   9.0709  15.7253  16.7088  16.7088
    16.7537  17.0884  18.3189  18.3189  18.3612  19.0766  19.8288  20.9968

          k = 0.5000 0.5000 0.1250 (  3680 PWs)   bands (ev):

   -24.0285 -11.3997 -11.0250 -10.8124 -10.7974 -10.7974  -7.6897  -7.6897
    -7.0052  -5.9801  -5.8316  -5.8316   1.8063   5.6030   6.0991   7.1433
     7.1433   7.9861   7.9861   8.3793   9.0744  15.6624  16.5011  16.5011
    16.8030  17.1234  18.3407  18.4897  18.4897  18.9977  19.8519  21.0263

          k = 0.5000 0.5000 0.1500 (  3672 PWs)   bands (ev):

   -24.0279 -11.3760 -11.0250 -10.8127 -10.7988 -10.7988  -7.6750  -7.6750
    -7.0322  -5.9911  -5.8502  -5.8502   1.6370   5.8463   6.1406   7.0841
     7.0841   8.0891   8.0891   8.3803   9.0784  15.5882  16.2961  16.2961
    16.8626  17.1679  18.3168  18.6485  18.6485  18.9077  19.8745  21.0611

          k = 0.5000 0.5000 0.1750 (  3676 PWs)   bands (ev):

   -24.0274 -11.3494 -11.0250 -10.8131 -10.8004 -10.8004  -7.6582  -7.6582
    -7.0630  -6.0033  -5.8713  -5.8713   1.4673   6.1007   6.1874   7.0297
     7.0297   8.1934   8.1934   8.3813   9.0828  15.5043  16.0953  16.0953
    16.9320  17.2224  18.2901  18.7940  18.7940  18.8097  19.8942  21.1004

          k = 0.5000 0.5000 0.2000 (  3668 PWs)   bands (ev):

   -24.0267 -11.3200 -11.0246 -10.8135 -10.8021 -10.8021  -7.6395  -7.6395
    -7.0971  -6.0166  -5.8947  -5.8947   1.3017   6.2384   6.3602   6.9800
     6.9800   8.2983   8.2983   8.3824   9.0877  15.4127  15.9000  15.9000
    17.0107  17.2869  18.2614  18.7064  18.9247  18.9247  19.9083  21.1435

          k = 0.5000 0.5000 0.2250 (  3680 PWs)   bands (ev):

   -24.0261 -11.2886 -11.0247 -10.8140 -10.8040 -10.8040  -7.6193  -7.6193
    -7.1338  -6.0305  -5.9198  -5.9198   1.1432   6.2924   6.6198   6.9350
     6.9350   8.3836   8.4027   8.4027   9.0929  15.3154  15.7115  15.7115
    17.0979  17.3612  18.2313  18.6008  19.0397  19.0397  19.9146  21.1897

          k = 0.5000 0.5000 0.2500 (  3672 PWs)   bands (ev):

   -24.0254 -11.2553 -11.0247 -10.8144 -10.8058 -10.8058  -7.5980  -7.5980
    -7.1723  -6.0446  -5.9462  -5.9462   0.9942   6.3481   6.8755   6.8946
     6.8947   8.3848   8.5055   8.5055   9.0982  15.2148  15.5312  15.5312
    17.1925  17.4448  18.2007  18.4954  19.1387  19.1387  19.9111  21.2382

          k = 0.5000 0.5000 0.2750 (  3672 PWs)   bands (ev):

   -24.0247 -11.2216 -11.0247 -10.8148 -10.8076 -10.8076  -7.5761  -7.5761
    -7.2117  -6.0587  -5.9732  -5.9732   0.8564   6.4041   6.8587   6.8587
     7.1229   8.3860   8.6056   8.6056   9.1035  15.1130  15.3607  15.3607
    17.2933  17.5371  18.1703  18.3926  19.2217  19.2217  19.8962  21.2881

          k = 0.5000 0.5000 0.3000 (  3700 PWs)   bands (ev):

   -24.0241 -11.1881 -11.0247 -10.8155 -10.8097 -10.8097  -7.5540  -7.5540
    -7.2512  -6.0724  -6.0002  -6.0002   0.7309   6.4591   6.8270   6.8270
     7.3585   8.3870   8.7014   8.7014   9.1086  15.0123  15.2014  15.2014
    17.3984  17.6370  18.1409  18.2946  19.2894  19.2894  19.8691  21.3381

          k = 0.5000 0.5000 0.3250 (  3692 PWs)   bands (ev):

   -24.0234 -11.1553 -11.0247 -10.8157 -10.8113 -10.8113  -7.5323  -7.5323
    -7.2896  -6.0853  -6.0266  -6.0266   0.6188   6.5118   6.7995   6.7995
     7.5785   8.3881   8.7917   8.7917   9.1135  14.9151  15.0550  15.0550
    17.5057  17.7429  18.1130  18.2033  19.3430  19.3430  19.8297  21.3872

          k = 0.5000 0.5000 0.3500 (  3688 PWs)   bands (ev):

   -24.0228 -11.1242 -11.0248 -10.8162 -10.8128 -10.8128  -7.5116  -7.5116
    -7.3259  -6.0971  -6.0516  -6.0516   0.5207   6.5606   6.7761   6.7761
     7.7793   8.3891   8.8746   8.8746   9.1181  14.8239  14.9232  14.9232
    17.6122  17.8529  18.0875  18.1206  19.3841  19.3841  19.7787  21.4338

          k = 0.5000 0.5000 0.3750 (  3688 PWs)   bands (ev):

   -24.0223 -11.0961 -11.0247 -10.8165 -10.8142 -10.8142  -7.4925  -7.4925
    -7.3589  -6.1077  -6.0745  -6.0745   0.4370   6.6044   6.7565   6.7565
     7.9571   8.3901   8.9487   8.9487   9.1222  14.7409  14.8077  14.8077
    17.7144  17.9640  18.0481  18.0648  19.4147  19.4147  19.7182  21.4764

          k = 0.5000 0.5000 0.4000 (  3692 PWs)   bands (ev):

   -24.0219 -11.0717 -11.0247 -10.8169 -10.8154 -10.8154  -7.4758  -7.4758
    -7.3877  -6.1167  -6.0945  -6.0945   0.3682   6.6420   6.7406   6.7406
     8.1085   8.3908   9.0122   9.0122   9.1257  14.6688  14.7103  14.7103
    17.8077  17.9876  18.0456  18.0721  19.4365  19.4365  19.6517  21.5137

          k = 0.5000 0.5000 0.4250 (  3668 PWs)   bands (ev):

   -24.0215 -11.0517 -11.0244 -10.8168 -10.8161 -10.8161  -7.4620  -7.4620
    -7.4112  -6.1238  -6.1110  -6.1110   0.3145   6.6724   6.7285   6.7285
     8.2303   8.3916   9.0636   9.0636   9.1286  14.6098  14.6325  14.6325
    17.8839  17.9434  18.0301  18.1714  19.4515  19.4515  19.5848  21.5443

          k = 0.5000 0.5000 0.4500 (  3656 PWs)   bands (ev):

   -24.0212 -11.0369 -11.0244 -10.8169 -10.8165 -10.8165  -7.4516  -7.4516
    -7.4287  -6.1291  -6.1232  -6.1232   0.2760   6.6948   6.7199   6.7199
     8.3196   8.3920   9.1014   9.1014   9.1307  14.5660  14.5758  14.5758
    17.8948  17.9596  18.0189  18.2539  19.4610  19.4610  19.5254  21.5670

          k = 0.5000 0.5000 0.4750 (  3648 PWs)   bands (ev):

   -24.0211 -11.0275 -11.0244 -10.8170 -10.8169 -10.8169  -7.4452  -7.4452
    -7.4394  -6.1323  -6.1308  -6.1308   0.2529   6.7086   6.7146   6.7147
     8.3741   8.3923   9.1246   9.1247   9.1319  14.5390  14.5412  14.5413
    17.8763  17.9965  18.0120  18.3098  19.4662  19.4663  19.4832  21.5809

          k = 0.5000 0.5000 0.5000 (  3648 PWs)   bands (ev):

   -24.0210 -11.0244 -11.0244 -10.8170 -10.8170 -10.8170  -7.4430  -7.4430
    -7.4430  -6.1334  -6.1334  -6.1334   0.2452   6.7130   6.7130   6.7130
     8.3924   8.3924   9.1324   9.1324   9.1324  14.5298  14.5298  14.5298
    17.8694  18.0097  18.0097  18.3298  19.4679  19.4679  19.4679  21.5856

     Writing output data file pwscf.save/

     init_run     :      1.36s CPU      1.38s WALL (       1 calls)
     electrons    :   1472.58s CPU   1482.87s WALL (       1 calls)

     Called by init_run:
     wfcinit      :      0.00s CPU      0.00s WALL (       1 calls)
     wfcinit:atom :      0.20s CPU      0.20s WALL (     122 calls)
     wfcinit:wfcr :     11.17s CPU     11.19s WALL (     122 calls)
     potinit      :      0.04s CPU      0.05s WALL (       1 calls)
     hinit0       :      1.21s CPU      1.22s WALL (       1 calls)

     Called by electrons:
     c_bands      :   1472.58s CPU   1482.87s WALL (       1 calls)
     v_of_rho     :      0.04s CPU      0.04s WALL (       1 calls)
     v_h          :      0.00s CPU      0.00s WALL (       1 calls)
     v_xc         :      0.04s CPU      0.04s WALL (       1 calls)
     newd         :      0.09s CPU      0.11s WALL (       1 calls)

     Called by c_bands:
     init_us_2    :      0.26s CPU      0.26s WALL (     122 calls)
     ccgdiagg     :   1460.82s CPU   1470.97s WALL (     122 calls)
     wfcrot       :     11.17s CPU     11.19s WALL (     122 calls)

     Called by sum_band:

     Called by *cgdiagg:
     h_psi        :    882.89s CPU    887.74s WALL (  412174 calls)
     s_psi        :    264.41s CPU    267.09s WALL (  824226 calls)
     cdiaghg      :      0.05s CPU      0.05s WALL (     122 calls)

     Called by h_psi:
     h_psi:pot    :    879.74s CPU    884.53s WALL (  412174 calls)
     h_psi:calbec :    134.35s CPU    134.98s WALL (  412174 calls)
     vloc_psi     :    602.82s CPU    606.30s WALL (  412174 calls)
     add_vuspsi   :    140.08s CPU    140.92s WALL (  412174 calls)
     h_1psi       :   1013.60s CPU   1019.61s WALL (  412052 calls)

     General routines
     calbec       :    259.09s CPU    261.12s WALL (  824226 calls)
     fft          :      0.01s CPU      0.01s WALL (      13 calls)
     fftw         :    547.21s CPU    550.31s WALL (  831912 calls)
     davcio       :      0.03s CPU      0.15s WALL (     244 calls)


     PWSCF        : 24m35.23s CPU    24m45.82s WALL


   This run was terminated on:   6:44:26  23Jun2019            

=------------------------------------------------------------------------------=
   JOB DONE.
=------------------------------------------------------------------------------=
