
     Program BANDS v.6.3MaX starts on 19Jun2019 at 19: 8:17 

     This program is part of the open-source Quantum ESPRESSO suite
     for quantum simulation of materials; please cite
         "P. Giannozzi et al., J. Phys.:Condens. Matter 21 395502 (2009);
         "P. Giannozzi et al., J. Phys.:Condens. Matter 29 465901 (2017);
          URL http://www.quantum-espresso.org", 
     in publications or presentations arising from this work. More details at
     http://www.quantum-espresso.org/quote

     Serial version

     Reading data from directory:
     ./SrSnO3/pwscf.save/

     IMPORTANT: XC functional enforced from input :
     Exchange-correlation      = PBE ( 1  4  3  4 0 0)
     Any further DFT definition will be discarded
     Please, verify this is what you really want

               file Sn.pbe-dn-rrkjus_psl.1.0.0.UPF: wavefunction(s)  5S 4D renormalized
 
     G-vector sticks info
     --------------------
     sticks:   dense  smooth     PW     G-vecs:    dense   smooth      PW
     Sum        1153    1153    349                29423    29423    4801
 

     Check: negative/imaginary core charge=   -0.000010    0.000000
     high-symmetry point:  0.0000 0.0000 0.0000   x coordinate   0.0000
     high-symmetry point:  0.0000 0.5000 0.0000   x coordinate   0.5000
     high-symmetry point:  0.5000 0.5000 0.0000   x coordinate   1.0000
     high-symmetry point:  0.0000 0.0000 0.0000   x coordinate   1.7071
     high-symmetry point:  0.5000 0.5000 0.5000   x coordinate   2.5731
     high-symmetry point:  0.0000 0.5000 0.0000   x coordinate   3.2802
     high-symmetry point:  0.5000 0.5000 0.0000   x coordinate   3.2802
     high-symmetry point:  0.5000 0.5000 0.5000   x coordinate   3.7802

     Plottable bands (eV) written to file SrSnO3.bands.dat.gnu
     Bands written to file SrSnO3.bands.dat

 **************************************************************************

                    xk=(   0.00000,   0.00000,   0.00000  )

     point group O_h (m-3m) 
     there are 10 classes
     the character table:

       E     8C3   3C2   6C4   6C2'  i     8S6   3s_h  6S4   6s_d 
A_1g   1.00  1.00  1.00  1.00  1.00  1.00  1.00  1.00  1.00  1.00
A_2g   1.00  1.00  1.00 -1.00 -1.00  1.00  1.00  1.00 -1.00 -1.00
E_g    2.00 -1.00  2.00  0.00  0.00  2.00 -1.00  2.00  0.00  0.00
T_1g   3.00  0.00 -1.00  1.00 -1.00  3.00  0.00 -1.00  1.00 -1.00
T_2g   3.00  0.00 -1.00 -1.00  1.00  3.00  0.00 -1.00 -1.00  1.00
A_1u   1.00  1.00  1.00  1.00  1.00 -1.00 -1.00 -1.00 -1.00 -1.00
A_2u   1.00  1.00  1.00 -1.00 -1.00 -1.00 -1.00 -1.00  1.00  1.00
E_u    2.00 -1.00  2.00  0.00  0.00 -2.00  1.00 -2.00  0.00  0.00
T_1u   3.00  0.00 -1.00  1.00 -1.00 -3.00  0.00  1.00 -1.00  1.00
T_2u   3.00  0.00 -1.00 -1.00  1.00 -3.00  0.00  1.00  1.00 -1.00

     the symmetry operations in each class and the name of the first element:

     E        1
                                                                 
     8C3     17   19   20   18   24   21   22   23
                                                                 
     3C2      2    4    3
                                                                 
     6C4      7    8   15   16   12   11
                                                                 
     6C2'     5    6   14   13   10    9
                                                                 
     i       25
                                                                 
     8S6     41   43   44   42   48   45   46   47
                                                                 
     3s_h    26   28   27
                                                                 
     6S4     31   32   39   40   36   35
                                                                 
     6s_d    29   30   38   37   34   33
                                                                 

     Band symmetry, O_h (m-3m)  point group:

     e(  1 -  1) =    -24.05000  eV     1   --> A_1g G_1   G_1+
     e(  2 -  3) =    -11.59061  eV     2   --> E_g  G_12  G_3+
     e(  4 -  6) =    -10.77802  eV     3   --> T_2g G_25' G_5+
     e(  7 -  7) =     -8.78892  eV     1   --> A_1g G_1   G_1+
     e(  8 - 10) =     -6.01392  eV     3   --> T_1u G_15  G_4-
     e( 11 - 12) =     -5.69919  eV     2   --> E_g  G_12  G_3+
     e( 13 - 15) =      4.29568  eV     3   --> T_1u G_15  G_4-
     e( 16 - 18) =      8.13252  eV     3   --> T_2u G_25  G_5-
     e( 19 - 21) =      8.34880  eV     3   --> T_1u G_15  G_4-
     e( 22 - 22) =     10.04442  eV     1   --> A_1g G_1   G_1+
     e( 23 - 24) =     14.34622  eV     2   --> E_g  G_12  G_3+
     e( 25 - 25) =     14.88920  eV     1   --> A_1g G_1   G_1+
     e( 26 - 28) =     16.24618  eV     3   --> T_2g G_25' G_5+
     e( 29 - 31) =     21.99278  eV     3   --> T_1u G_15  G_4-
     e( 32 - 32) =     24.97884  eV     1   -->   ?

 **************************************************************************

 **************************************************************************

                    xk=(   0.00000,   0.02500,   0.00000  )

     point group C_4v (4mm) 
     there are  5 classes
     the character table:

       E     2C4   C2    2s_v  2s_d 
A_1    1.00  1.00  1.00  1.00  1.00
A_2    1.00  1.00  1.00 -1.00 -1.00
B_1    1.00 -1.00  1.00  1.00 -1.00
B_2    1.00 -1.00  1.00 -1.00  1.00
E      2.00  0.00 -2.00  0.00  0.00

     the symmetry operations in each class and the name of the first element:

     E        1
                                                                 
     2C4      3    4
                                                                 
     C2       2
                                                                 
     2s_v     5    6
                                                                 
     2s_d     7    8
                                                                 

     Band symmetry, C_4v (4mm)  point group:

     e(  1 -  1) =    -24.04994  eV     1   --> A_1  G_1 D_1   
     e(  2 -  2) =    -11.59058  eV     1   -->   ?
     e(  3 -  3) =    -11.58885  eV     1   -->   ?
     e(  4 -  5) =    -10.77813  eV     2   -->   ?
     e(  6 -  6) =    -10.77801  eV     1   -->   ?
     e(  7 -  7) =     -8.78778  eV     1   --> A_1  G_1 D_1   
     e(  8 -  8) =     -6.02006  eV     1   --> A_1  G_1 D_1   
     e(  9 - 10) =     -6.01367  eV     2   --> E    G_5 D_5   
     e( 11 - 11) =     -5.69958  eV     1   -->   ?
     e( 12 - 12) =     -5.69907  eV     1   -->   ?
     e( 13 - 13) =      4.29639  eV     1   -->   ?
     e( 14 - 15) =      4.29658  eV     2   -->   ?
     e( 16 - 16) =      8.12910  eV     1   -->   ?
     e( 17 - 17) =      8.12974  eV     1   -->   ?
     e( 18 - 18) =      8.12997  eV     1   -->   ?
     e( 19 - 19) =      8.32600  eV     1   -->   ?
     e( 20 - 21) =      8.34727  eV     2   -->   ?
     e( 22 - 22) =     10.07663  eV     1   --> A_1  G_1 D_1   
     e( 23 - 23) =     14.35474  eV     1   --> A_1  G_1 D_1   
     e( 24 - 24) =     14.35571  eV     1   --> B_1  G_3 D_2   
     e( 25 - 25) =     14.90126  eV     1   --> A_1  G_1 D_1   
     e( 26 - 26) =     16.24810  eV     1   -->   ?
     e( 27 - 28) =     16.25360  eV     2   -->   ?
     e( 29 - 29) =     21.98135  eV     1   -->   ?
     e( 30 - 31) =     21.99192  eV     2   -->   ?
     e( 32 - 32) =     24.94992  eV     1   -->   ?

 **************************************************************************

 **************************************************************************

                    xk=(   0.00000,   0.05000,   0.00000  )

     Band symmetry, C_4v (4mm)  point group:

     e(  1 -  1) =    -24.04974  eV     1   --> A_1  G_1 D_1   
     e(  2 -  2) =    -11.59052  eV     1   --> B_1  G_3 D_2   
     e(  3 -  3) =    -11.58335  eV     1   --> A_1  G_1 D_1   
     e(  4 -  5) =    -10.77843  eV     2   -->   ?
     e(  6 -  6) =    -10.77800  eV     1   -->   ?
     e(  7 -  7) =     -8.78430  eV     1   --> A_1  G_1 D_1   
     e(  8 -  8) =     -6.03858  eV     1   --> A_1  G_1 D_1   
     e(  9 - 10) =     -6.01294  eV     2   --> E    G_5 D_5   
     e( 11 - 11) =     -5.70055  eV     1   -->   ?
     e( 12 - 12) =     -5.69867  eV     1   -->   ?
     e( 13 - 13) =      4.29854  eV     1   -->   ?
     e( 14 - 15) =      4.29928  eV     2   -->   ?
     e( 16 - 16) =      8.11489  eV     1   -->   ?
     e( 17 - 18) =      8.12400  eV     2   -->   ?
     e( 19 - 19) =      8.26218  eV     1   --> A_1  G_1 D_1   
     e( 20 - 21) =      8.34269  eV     2   --> E    G_5 D_5   
     e( 22 - 22) =     10.16864  eV     1   --> A_1  G_1 D_1   
     e( 23 - 23) =     14.38011  eV     1   -->   ?
     e( 24 - 24) =     14.38392  eV     1   -->   ?
     e( 25 - 25) =     14.93738  eV     1   --> A_1  G_1 D_1   
     e( 26 - 26) =     16.25346  eV     1   -->   ?
     e( 27 - 28) =     16.27604  eV     2   -->   ?
     e( 29 - 29) =     21.94691  eV     1   --> A_1  G_1 D_1   
     e( 30 - 31) =     21.98963  eV     2   --> E    G_5 D_5   
     e( 32 - 32) =     24.86718  eV     1   -->   ?

 **************************************************************************

 **************************************************************************

                    xk=(   0.00000,   0.07500,   0.00000  )

     Band symmetry, C_4v (4mm)  point group:

     e(  1 -  1) =    -24.04943  eV     1   --> A_1  G_1 D_1   
     e(  2 -  2) =    -11.59043  eV     1   --> B_1  G_3 D_2   
     e(  3 -  3) =    -11.57479  eV     1   --> A_1  G_1 D_1   
     e(  4 -  5) =    -10.77913  eV     2   -->   0 A_1  G_1 D_1   
     e(  6 -  6) =    -10.77799  eV     1   -->   0 A_1  G_1 D_1   
     e(  7 -  7) =     -8.77840  eV     1   --> A_1  G_1 D_1   
     e(  8 -  8) =     -6.06975  eV     1   --> A_1  G_1 D_1   
     e(  9 - 10) =     -6.01175  eV     2   --> E    G_5 D_5   
     e( 11 - 11) =     -5.70166  eV     1   -->   ?
     e( 12 - 12) =     -5.69802  eV     1   -->   ?
     e( 13 - 13) =      4.30219  eV     1   --> A_1  G_1 D_1   
     e( 14 - 15) =      4.30369  eV     2   --> E    G_5 D_5   
     e( 16 - 16) =      8.09321  eV     1   -->   ?
     e( 17 - 18) =      8.11386  eV     2   -->   ?
     e( 19 - 19) =      8.16760  eV     1   -->   ?
     e( 22 - 22) =     10.30980  eV     1   --> A_1  G_1 D_1   
     e( 23 - 23) =     14.42170  eV     1   -->   ?
     e( 24 - 24) =     14.43012  eV     1   -->   ?
     e( 25 - 25) =     14.99739  eV     1   --> A_1  G_1 D_1   
     e( 29 - 29) =     21.88986  eV     1   --> A_1  G_1 D_1   
     e( 30 - 31) =     21.98595  eV     2   --> E    G_5 D_5   
     e( 32 - 32) =     24.74106  eV     1   --> B_2  G_4 D_2'  

 **************************************************************************

 **************************************************************************

                    xk=(   0.00000,   0.10000,   0.00000  )

     Band symmetry, C_4v (4mm)  point group:

     e(  1 -  1) =    -24.04900  eV     1   --> A_1  G_1 D_1   
     e(  2 -  2) =    -11.59029  eV     1   --> B_1  G_3 D_2   
     e(  3 -  3) =    -11.56296  eV     1   --> A_1  G_1 D_1   
     e(  7 -  7) =     -8.76986  eV     1   --> A_1  G_1 D_1   
     e(  8 -  8) =     -6.11364  eV     1   --> A_1  G_1 D_1   
     e(  9 - 10) =     -6.01012  eV     2   --> E    G_5 D_5   
     e( 11 - 11) =     -5.70216  eV     1   --> A_1  G_1 D_1   
     e( 12 - 12) =     -5.69714  eV     1   --> B_1  G_3 D_2   
     e( 13 - 13) =      4.30748  eV     1   -->   ?
     e( 14 - 15) =      4.30972  eV     2   -->   ?
     e( 16 - 16) =      8.05327  eV     1   --> A_1  G_1 D_1   
     e( 17 - 17) =      8.06414  eV     1   --> B_1  G_3 D_2   
     e( 18 - 19) =      8.10020  eV     2   --> E    G_5 D_5   
     e( 20 - 21) =      8.32462  eV     2   --> E    G_5 D_5   
     e( 22 - 22) =     10.48893  eV     1   --> A_1  G_1 D_1   
     e( 23 - 23) =     14.47859  eV     1   --> A_1  G_1 D_1   
     e( 24 - 24) =     14.49313  eV     1   --> B_1  G_3 D_2   
     e( 25 - 25) =     15.08097  eV     1   --> A_1  G_1 D_1   
     e( 26 - 26) =     16.27482  eV     1   --> B_2  G_4 D_2'  
     e( 27 - 28) =     16.36299  eV     2   --> E    G_5 D_5   
     e( 29 - 29) =     21.81057  eV     1   --> A_1  G_1 D_1   
     e( 30 - 31) =     21.98127  eV     2   --> E    G_5 D_5   
     e( 32 - 32) =     24.58390  eV     1   --> B_2  G_4 D_2'  

 **************************************************************************

 **************************************************************************

                    xk=(   0.00000,   0.12500,   0.00000  )

     Band symmetry, C_4v (4mm)  point group:

     e(  1 -  1) =    -24.04846  eV     1   --> A_1  G_1 D_1   
     e(  2 -  2) =    -11.59019  eV     1   --> B_1  G_3 D_2   
     e(  3 -  3) =    -11.54821  eV     1   --> A_1  G_1 D_1   
     e(  4 -  5) =    -10.78093  eV     2   --> E    G_5 D_5   
     e(  6 -  6) =    -10.77796  eV     1   --> B_2  G_4 D_2'  
     e(  7 -  7) =     -8.75845  eV     1   --> A_1  G_1 D_1   
     e(  8 -  8) =     -6.17002  eV     1   --> A_1  G_1 D_1   
     e(  9 - 10) =     -6.00809  eV     2   --> E    G_5 D_5   
     e( 11 - 11) =     -5.70160  eV     1   --> A_1  G_1 D_1   
     e( 12 - 12) =     -5.69607  eV     1   --> B_1  G_3 D_2   
     e( 13 - 13) =      4.31453  eV     1   --> A_1  G_1 D_1   
     e( 14 - 15) =      4.31720  eV     2   --> E    G_5 D_5   
     e( 16 - 16) =      7.92766  eV     1   --> A_1  G_1 D_1   
     e( 17 - 17) =      8.02860  eV     1   --> B_1  G_3 D_2   
     e( 18 - 19) =      8.08359  eV     2   --> E    G_5 D_5   
     e( 20 - 21) =      8.31137  eV     2   --> E    G_5 D_5   
     e( 22 - 22) =     10.69708  eV     1   --> A_1  G_1 D_1   
     e( 23 - 23) =     14.54949  eV     1   --> A_1  G_1 D_1   
     e( 24 - 24) =     14.57135  eV     1   --> B_1  G_3 D_2   
     e( 25 - 25) =     15.18768  eV     1   --> A_1  G_1 D_1   
     e( 26 - 26) =     16.29034  eV     1   --> B_2  G_4 D_2'  
     e( 27 - 28) =     16.42567  eV     2   --> E    G_5 D_5   
     e( 29 - 29) =     21.70964  eV     1   --> A_1  G_1 D_1   
     e( 30 - 31) =     21.97606  eV     2   --> E    G_5 D_5   
     e( 32 - 32) =     24.40695  eV     1   --> B_2  G_4 D_2'  

 **************************************************************************

 **************************************************************************

                    xk=(   0.00000,   0.15000,   0.00000  )

     Band symmetry, C_4v (4mm)  point group:

     e(  1 -  1) =    -24.04783  eV     1   --> A_1  G_1 D_1   
     e(  2 -  2) =    -11.58979  eV     1   --> B_1  G_3 D_2   
     e(  3 -  3) =    -11.53080  eV     1   --> A_1  G_1 D_1   
     e(  4 -  5) =    -10.78189  eV     2   --> E    G_5 D_5   
     e(  6 -  6) =    -10.77785  eV     1   --> B_2  G_4 D_2'  
     e(  7 -  7) =     -8.74384  eV     1   --> A_1  G_1 D_1   
     e(  8 -  8) =     -6.23812  eV     1   --> A_1  G_1 D_1   
     e(  9 - 10) =     -6.00571  eV     2   --> E    G_5 D_5   
     e( 11 - 11) =     -5.69996  eV     1   --> A_1  G_1 D_1   
     e( 12 - 12) =     -5.69474  eV     1   --> B_1  G_3 D_2   
     e( 13 - 13) =      4.32341  eV     1   --> A_1  G_1 D_1   
     e( 14 - 15) =      4.32598  eV     2   --> E    G_5 D_5   
     e( 16 - 16) =      7.79664  eV     1   --> A_1  G_1 D_1   
     e( 17 - 17) =      7.98787  eV     1   --> B_1  G_3 D_2   
     e( 18 - 19) =      8.06477  eV     2   --> E    G_5 D_5   
     e( 20 - 21) =      8.29564  eV     2   --> E    G_5 D_5   
     e( 22 - 22) =     10.92777  eV     1   --> A_1  G_1 D_1   
     e( 23 - 23) =     14.63287  eV     1   --> A_1  G_1 D_1   
     e( 24 - 24) =     14.66290  eV     1   --> B_1  G_3 D_2   
     e( 25 - 25) =     15.31690  eV     1   --> A_1  G_1 D_1   
     e( 26 - 26) =     16.30875  eV     1   --> B_2  G_4 D_2'  
     e( 27 - 28) =     16.49942  eV     2   --> E    G_5 D_5   
     e( 29 - 29) =     21.58776  eV     1   --> A_1  G_1 D_1   
     e( 30 - 31) =     21.97092  eV     2   --> E    G_5 D_5   
     e( 32 - 32) =     24.21921  eV     1   --> B_2  G_4 D_2'  

 **************************************************************************

 **************************************************************************

                    xk=(   0.00000,   0.17500,   0.00000  )

     Band symmetry, C_4v (4mm)  point group:

     e(  1 -  1) =    -24.04712  eV     1   --> A_1  G_1 D_1   
     e(  2 -  2) =    -11.58956  eV     1   --> B_1  G_3 D_2   
     e(  3 -  3) =    -11.51119  eV     1   --> A_1  G_1 D_1   
     e(  4 -  5) =    -10.78329  eV     2   --> E    G_5 D_5   
     e(  6 -  6) =    -10.77785  eV     1   --> B_2  G_4 D_2'  
     e(  7 -  7) =     -8.72571  eV     1   --> A_1  G_1 D_1   
     e(  8 -  8) =     -6.31692  eV     1   --> A_1  G_1 D_1   
     e(  9 - 10) =     -6.00304  eV     2   --> E    G_5 D_5   
     e( 11 - 11) =     -5.69723  eV     1   --> A_1  G_1 D_1   
     e( 12 - 12) =     -5.69332  eV     1   --> B_1  G_3 D_2   
     e( 13 - 13) =      4.33421  eV     1   --> A_1  G_1 D_1   
     e( 16 - 16) =      7.66419  eV     1   --> A_1  G_1 D_1   
     e( 17 - 17) =      7.94304  eV     1   --> B_1  G_3 D_2   
     e( 18 - 19) =      8.04442  eV     2   --> E    G_5 D_5   
     e( 20 - 21) =      8.27748  eV     2   --> E    G_5 D_5   
     e( 22 - 22) =     11.17617  eV     1   --> A_1  G_1 D_1   
     e( 23 - 23) =     14.72692  eV     1   --> A_1  G_1 D_1   
     e( 24 - 24) =     14.76554  eV     1   --> B_1  G_3 D_2   
     e( 25 - 25) =     15.46789  eV     1   --> A_1  G_1 D_1   
     e( 26 - 26) =     16.32970  eV     1   --> B_2  G_4 D_2'  
     e( 27 - 28) =     16.58259  eV     2   --> E    G_5 D_5   
     e( 29 - 29) =     21.44596  eV     1   --> A_1  G_1 D_1   
     e( 30 - 31) =     21.96653  eV     2   --> E    G_5 D_5   
     e( 32 - 32) =     24.02748  eV     1   --> B_2  G_4 D_2'  

 **************************************************************************

 **************************************************************************

                    xk=(   0.00000,   0.20000,   0.00000  )

     Band symmetry, C_4v (4mm)  point group:

     e(  1 -  1) =    -24.04635  eV     1   --> A_1  G_1 D_1   
     e(  2 -  2) =    -11.58921  eV     1   --> B_1  G_3 D_2   
     e(  3 -  3) =    -11.48985  eV     1   --> A_1  G_1 D_1   
     e(  4 -  5) =    -10.78442  eV     2   --> E    G_5 D_5   
     e(  6 -  6) =    -10.77772  eV     1   --> B_2  G_4 D_2'  
     e(  7 -  7) =     -8.70368  eV     1   --> A_1  G_1 D_1   
     e(  8 -  8) =     -6.40512  eV     1   --> A_1  G_1 D_1   
     e(  9 - 10) =     -6.00014  eV     2   --> E    G_5 D_5   
     e( 11 - 11) =     -5.69353  eV     1   --> A_1  G_1 D_1   
     e( 12 - 12) =     -5.69170  eV     1   --> B_1  G_3 D_2   
     e( 13 - 14) =      4.34645  eV     2   --> E    G_5 D_5   
     e( 15 - 15) =      4.34700  eV     1   --> A_1  G_1 D_1   
     e( 16 - 16) =      7.53300  eV     1   --> A_1  G_1 D_1   
     e( 17 - 17) =      7.89575  eV     1   --> B_1  G_3 D_2   
     e( 18 - 19) =      8.02334  eV     2   --> E    G_5 D_5   
     e( 20 - 21) =      8.25726  eV     2   --> E    G_5 D_5   
     e( 22 - 22) =     11.43849  eV     1   --> A_1  G_1 D_1   
     e( 23 - 23) =     14.82959  eV     1   --> A_1  G_1 D_1   
     e( 24 - 24) =     14.87689  eV     1   --> B_1  G_3 D_2   
     e( 25 - 25) =     15.63978  eV     1   --> A_1  G_1 D_1   
     e( 26 - 26) =     16.35277  eV     1   --> B_2  G_4 D_2'  
     e( 27 - 28) =     16.67335  eV     2   --> E    G_5 D_5   
     e( 29 - 29) =     21.28542  eV     1   --> A_1  G_1 D_1   
     e( 30 - 31) =     21.96381  eV     2   --> E    G_5 D_5   
     e( 32 - 32) =     23.83688  eV     1   --> B_2  G_4 D_2'  

 **************************************************************************

 **************************************************************************

                    xk=(   0.00000,   0.22500,   0.00000  )

     Band symmetry, C_4v (4mm)  point group:

     e(  1 -  1) =    -24.04554  eV     1   --> A_1  G_1 D_1   
     e(  2 -  2) =    -11.58891  eV     1   --> B_1  G_3 D_2   
     e(  3 -  3) =    -11.46738  eV     1   --> A_1  G_1 D_1   
     e(  4 -  5) =    -10.78574  eV     2   --> E    G_5 D_5   
     e(  6 -  6) =    -10.77765  eV     1   --> B_2  G_4 D_2'  
     e(  7 -  7) =     -8.67741  eV     1   --> A_1  G_1 D_1   
     e(  8 -  8) =     -6.50136  eV     1   --> A_1  G_1 D_1   
     e(  9 - 10) =     -5.99709  eV     2   --> E    G_5 D_5   
     e( 11 - 11) =     -5.69005  eV     1   --> B_1  G_3 D_2   
     e( 12 - 12) =     -5.68908  eV     1   --> A_1  G_1 D_1   
     e( 13 - 14) =      4.35762  eV     2   --> E    G_5 D_5   
     e( 15 - 15) =      4.36165  eV     1   --> A_1  G_1 D_1   
     e( 16 - 16) =      7.40515  eV     1   --> A_1  G_1 D_1   
     e( 17 - 17) =      7.84694  eV     1   --> B_1  G_3 D_2   
     e( 18 - 19) =      8.00234  eV     2   --> E    G_5 D_5   
     e( 20 - 21) =      8.23525  eV     2   --> E    G_5 D_5   
     e( 22 - 22) =     11.71132  eV     1   --> A_1  G_1 D_1   
     e( 23 - 23) =     14.93856  eV     1   --> A_1  G_1 D_1   
     e( 24 - 24) =     14.99436  eV     1   --> B_1  G_3 D_2   
     e( 25 - 25) =     15.83158  eV     1   --> A_1  G_1 D_1   
     e( 26 - 26) =     16.37748  eV     1   --> B_2  G_4 D_2'  
     e( 27 - 28) =     16.76964  eV     2   --> E    G_5 D_5   
     e( 29 - 29) =     21.10772  eV     1   --> A_1  G_1 D_1   
     e( 30 - 31) =     21.96355  eV     2   --> E    G_5 D_5   
     e( 32 - 32) =     23.65125  eV     1   --> B_2  G_4 D_2'  

 **************************************************************************

 **************************************************************************

                    xk=(   0.00000,   0.25000,   0.00000  )

     Band symmetry, C_4v (4mm)  point group:

     e(  1 -  1) =    -24.04471  eV     1   --> A_1  G_1 D_1   
     e(  2 -  2) =    -11.58855  eV     1   --> B_1  G_3 D_2   
     e(  3 -  3) =    -11.44429  eV     1   --> A_1  G_1 D_1   
     e(  4 -  5) =    -10.78701  eV     2   --> E    G_5 D_5   
     e(  6 -  6) =    -10.77741  eV     1   --> B_2  G_4 D_2'  
     e(  7 -  7) =     -8.64658  eV     1   --> A_1  G_1 D_1   
     e(  8 -  8) =     -6.60401  eV     1   --> A_1  G_1 D_1   
     e(  9 - 10) =     -5.99395  eV     2   --> E    G_5 D_5   
     e( 11 - 11) =     -5.68836  eV     1   --> B_1  G_3 D_2   
     e( 12 - 12) =     -5.68412  eV     1   --> A_1  G_1 D_1   
     e( 13 - 14) =      4.36907  eV     2   --> E    G_5 D_5   
     e( 15 - 15) =      4.37802  eV     1   --> A_1  G_1 D_1   
     e( 16 - 16) =      7.28218  eV     1   --> A_1  G_1 D_1   
     e( 17 - 17) =      7.79808  eV     1   --> B_1  G_3 D_2   
     e( 18 - 19) =      7.98213  eV     2   --> E    G_5 D_5   
     e( 20 - 21) =      8.21184  eV     2   --> E    G_5 D_5   
     e( 22 - 22) =     11.99139  eV     1   --> A_1  G_1 D_1   
     e( 23 - 23) =     15.05124  eV     1   --> A_1  G_1 D_1   
     e( 24 - 24) =     15.11523  eV     1   --> B_1  G_3 D_2   
     e( 25 - 25) =     16.04222  eV     1   --> A_1  G_1 D_1   
     e( 26 - 26) =     16.40331  eV     1   --> B_2  G_4 D_2'  
     e( 27 - 28) =     16.86925  eV     2   --> E    G_5 D_5   
     e( 29 - 29) =     20.91471  eV     1   --> A_1  G_1 D_1   
     e( 30 - 31) =     21.96681  eV     2   --> E    G_5 D_5   
     e( 32 - 32) =     23.47365  eV     1   --> B_2  G_4 D_2'  

 **************************************************************************

 **************************************************************************

                    xk=(   0.00000,   0.27500,   0.00000  )

     Band symmetry, C_4v (4mm)  point group:

     e(  1 -  1) =    -24.04389  eV     1   --> A_1  G_1 D_1   
     e(  2 -  2) =    -11.58828  eV     1   --> B_1  G_3 D_2   
     e(  3 -  3) =    -11.42120  eV     1   --> A_1  G_1 D_1   
     e(  4 -  5) =    -10.78858  eV     2   --> E    G_5 D_5   
     e(  6 -  6) =    -10.77738  eV     1   --> B_2  G_4 D_2'  
     e(  7 -  7) =     -8.61097  eV     1   --> A_1  G_1 D_1   
     e(  8 -  8) =     -6.71143  eV     1   --> A_1  G_1 D_1   
     e(  9 - 10) =     -5.99082  eV     2   --> E    G_5 D_5   
     e( 11 - 11) =     -5.68667  eV     1   --> B_1  G_3 D_2   
     e( 12 - 12) =     -5.67888  eV     1   --> A_1  G_1 D_1   
     e( 13 - 14) =      4.38046  eV     2   --> E    G_5 D_5   
     e( 15 - 15) =      4.39581  eV     1   --> A_1  G_1 D_1   
     e( 16 - 16) =      7.16541  eV     1   --> A_1  G_1 D_1   
     e( 17 - 17) =      7.75027  eV     1   --> B_1  G_3 D_2   
     e( 18 - 19) =      7.96333  eV     2   --> E    G_5 D_5   
     e( 20 - 21) =      8.18739  eV     2   --> E    G_5 D_5   
     e( 22 - 22) =     12.27518  eV     1   --> A_1  G_1 D_1   
     e( 23 - 23) =     15.16480  eV     1   --> A_1  G_1 D_1   
     e( 24 - 24) =     15.23671  eV     1   --> B_1  G_3 D_2   
     e( 25 - 25) =     16.27042  eV     1   --> A_1  G_1 D_1   
     e( 26 - 26) =     16.42965  eV     1   --> B_2  G_4 D_2'  
     e( 27 - 28) =     16.96985  eV     2   --> E    G_5 D_5   
     e( 29 - 29) =     20.70870  eV     1   --> A_1  G_1 D_1   
     e( 30 - 31) =     21.97453  eV     2   --> E    G_5 D_5   
     e( 32 - 32) =     23.30642  eV     1   --> B_2  G_4 D_2'  

 **************************************************************************

 **************************************************************************

                    xk=(   0.00000,   0.30000,   0.00000  )

     Band symmetry, C_4v (4mm)  point group:

     e(  1 -  1) =    -24.04309  eV     1   --> A_1  G_1 D_1   
     e(  2 -  2) =    -11.58799  eV     1   --> B_1  G_3 D_2   
     e(  3 -  3) =    -11.39874  eV     1   --> A_1  G_1 D_1   
     e(  4 -  5) =    -10.79004  eV     2   --> E    G_5 D_5   
     e(  6 -  6) =    -10.77754  eV     1   --> B_2  G_4 D_2'  
     e(  7 -  7) =     -8.57051  eV     1   --> A_1  G_1 D_1   
     e(  8 -  8) =     -6.82182  eV     1   --> A_1  G_1 D_1   
     e(  9 - 10) =     -5.98778  eV     2   --> E    G_5 D_5   
     e( 11 - 11) =     -5.68504  eV     1   --> B_1  G_3 D_2   
     e( 12 - 12) =     -5.67358  eV     1   --> A_1  G_1 D_1   
     e( 13 - 14) =      4.39152  eV     2   --> E    G_5 D_5   
     e( 15 - 15) =      4.41463  eV     1   --> A_1  G_1 D_1   
     e( 16 - 16) =      7.05619  eV     1   --> A_1  G_1 D_1   
     e( 17 - 17) =      7.70462  eV     1   --> B_1  G_3 D_2   
     e( 18 - 19) =      7.94657  eV     2   --> E    G_5 D_5   
     e( 20 - 21) =      8.16240  eV     2   --> E    G_5 D_5   
     e( 22 - 22) =     12.55878  eV     1   --> A_1  G_1 D_1   
     e( 23 - 23) =     15.27615  eV     1   --> A_1  G_1 D_1   
     e( 24 - 24) =     15.35594  eV     1   --> B_1  G_3 D_2   
     e( 25 - 25) =     16.45586  eV     1   -->   ?
     e( 26 - 26) =     16.51473  eV     1   -->   ?
     e( 27 - 28) =     17.06900  eV     2   --> E    G_5 D_5   
     e( 29 - 29) =     20.49250  eV     1   --> A_1  G_1 D_1   
     e( 30 - 31) =     21.98773  eV     2   --> E    G_5 D_5   
     e( 32 - 32) =     23.15160  eV     1   --> B_2  G_4 D_2'  

 **************************************************************************

 **************************************************************************

                    xk=(   0.00000,   0.32500,   0.00000  )

     Band symmetry, C_4v (4mm)  point group:

     e(  1 -  1) =    -24.04231  eV     1   --> A_1  G_1 D_1   
     e(  2 -  2) =    -11.58762  eV     1   --> B_1  G_3 D_2   
     e(  3 -  3) =    -11.37687  eV     1   --> A_1  G_1 D_1   
     e(  4 -  5) =    -10.79122  eV     2   --> E    G_5 D_5   
     e(  6 -  6) =    -10.77741  eV     1   --> B_2  G_4 D_2'  
     e(  7 -  7) =     -8.52529  eV     1   --> A_1  G_1 D_1   
     e(  8 -  8) =     -6.93327  eV     1   --> A_1  G_1 D_1   
     e(  9 - 10) =     -5.98487  eV     2   --> E    G_5 D_5   
     e( 11 - 11) =     -5.68345  eV     1   --> B_1  G_3 D_2   
     e( 12 - 12) =     -5.66838  eV     1   --> A_1  G_1 D_1   
     e( 13 - 14) =      4.40203  eV     2   --> E    G_5 D_5   
     e( 15 - 15) =      4.43404  eV     1   --> A_1  G_1 D_1   
     e( 16 - 16) =      6.95572  eV     1   --> A_1  G_1 D_1   
     e( 17 - 17) =      7.66220  eV     1   --> B_1  G_3 D_2   
     e( 18 - 19) =      7.93234  eV     2   --> E    G_5 D_5   
     e( 20 - 21) =      8.13741  eV     2   --> E    G_5 D_5   
     e( 22 - 22) =     12.83767  eV     1   --> A_1  G_1 D_1   
     e( 23 - 23) =     15.38206  eV     1   --> A_1  G_1 D_1   
     e( 24 - 24) =     15.47006  eV     1   --> B_1  G_3 D_2   
     e( 25 - 25) =     16.48124  eV     1   --> B_2  G_4 D_2'  
     e( 26 - 26) =     16.77348  eV     1   --> A_1  G_1 D_1   
     e( 27 - 28) =     17.16426  eV     2   --> E    G_5 D_5   
     e( 29 - 29) =     20.26944  eV     1   --> A_1  G_1 D_1   
     e( 30 - 31) =     22.00737  eV     2   --> E    G_5 D_5   
     e( 32 - 32) =     23.01143  eV     1   -->   ?

 **************************************************************************

 **************************************************************************

                    xk=(   0.00000,   0.35000,   0.00000  )

     Band symmetry, C_4v (4mm)  point group:

     e(  1 -  1) =    -24.04160  eV     1   --> A_1  G_1 D_1   
     e(  2 -  2) =    -11.58732  eV     1   --> B_1  G_3 D_2   
     e(  3 -  3) =    -11.35708  eV     1   --> A_1  G_1 D_1   
     e(  4 -  5) =    -10.79249  eV     2   --> E    G_5 D_5   
     e(  6 -  6) =    -10.77729  eV     1   --> B_2  G_4 D_2'  
     e(  7 -  7) =     -8.47588  eV     1   --> A_1  G_1 D_1   
     e(  8 -  8) =     -7.04371  eV     1   --> A_1  G_1 D_1   
     e(  9 - 10) =     -5.98218  eV     2   --> E    G_5 D_5   
     e( 11 - 11) =     -5.68196  eV     1   --> B_1  G_3 D_2   
     e( 12 - 12) =     -5.66353  eV     1   --> A_1  G_1 D_1   
     e( 13 - 14) =      4.41171  eV     2   --> E    G_5 D_5   
     e( 15 - 15) =      4.45327  eV     1   --> A_1  G_1 D_1   
     e( 16 - 16) =      6.86515  eV     1   --> A_1  G_1 D_1   
     e( 17 - 17) =      7.62361  eV     1   --> B_1  G_3 D_2   
     e( 18 - 19) =      7.92092  eV     2   --> E    G_5 D_5   
     e( 20 - 21) =      8.11292  eV     2   --> E    G_5 D_5   
     e( 22 - 22) =     13.10631  eV     1   --> A_1  G_1 D_1   
     e( 23 - 23) =     15.47918  eV     1   --> A_1  G_1 D_1   
     e( 24 - 24) =     15.57618  eV     1   --> B_1  G_3 D_2   
     e( 25 - 25) =     16.50515  eV     1   --> B_2  G_4 D_2'  
     e( 26 - 26) =     17.04437  eV     1   --> A_1  G_1 D_1   
     e( 27 - 28) =     17.25314  eV     2   --> E    G_5 D_5   
     e( 29 - 29) =     20.04309  eV     1   --> A_1  G_1 D_1   
     e( 30 - 31) =     22.03415  eV     2   --> E    G_5 D_5   
     e( 32 - 32) =     22.61316  eV     1   --> A_1  G_1 D_1   

 **************************************************************************

 **************************************************************************

                    xk=(   0.00000,   0.37500,   0.00000  )

     Band symmetry, C_4v (4mm)  point group:

     e(  1 -  1) =    -24.04098  eV     1   --> A_1  G_1 D_1   
     e(  2 -  2) =    -11.58731  eV     1   --> B_1  G_3 D_2   
     e(  3 -  3) =    -11.33941  eV     1   --> A_1  G_1 D_1   
     e(  4 -  5) =    -10.79371  eV     2   --> E    G_5 D_5   
     e(  6 -  6) =    -10.77753  eV     1   --> B_2  G_4 D_2'  
     e(  7 -  7) =     -8.42322  eV     1   --> A_1  G_1 D_1   
     e(  8 -  8) =     -7.15063  eV     1   --> A_1  G_1 D_1   
     e(  9 - 10) =     -5.97980  eV     2   --> E    G_5 D_5   
     e( 11 - 11) =     -5.68069  eV     1   --> B_1  G_3 D_2   
     e( 12 - 12) =     -5.65916  eV     1   --> A_1  G_1 D_1   
     e( 13 - 14) =      4.42024  eV     2   --> E    G_5 D_5   
     e( 15 - 15) =      4.47169  eV     1   --> A_1  G_1 D_1   
     e( 16 - 16) =      6.78570  eV     1   --> A_1  G_1 D_1   
     e( 17 - 17) =      7.58977  eV     1   --> B_1  G_3 D_2   
     e( 18 - 19) =      7.91239  eV     2   --> E    G_5 D_5   
     e( 20 - 21) =      8.08961  eV     2   --> E    G_5 D_5   
     e( 22 - 22) =     13.35821  eV     1   --> A_1  G_1 D_1   
     e( 23 - 23) =     15.56440  eV     1   --> A_1  G_1 D_1   
     e( 24 - 24) =     15.67158  eV     1   --> B_1  G_3 D_2   
     e( 25 - 25) =     16.52683  eV     1   --> B_2  G_4 D_2'  
     e( 26 - 26) =     17.32454  eV     1   --> A_1  G_1 D_1   
     e( 27 - 28) =     17.33320  eV     2   --> E    G_5 D_5   
     e( 29 - 29) =     19.81706  eV     1   --> A_1  G_1 D_1   
     e( 30 - 31) =     22.06846  eV     2   --> E    G_5 D_5   
     e( 32 - 32) =     22.23656  eV     1   --> A_1  G_1 D_1   

 **************************************************************************

 **************************************************************************

                    xk=(   0.00000,   0.40000,   0.00000  )

     Band symmetry, C_4v (4mm)  point group:

     e(  1 -  1) =    -24.04044  eV     1   --> A_1  G_1 D_1   
     e(  2 -  2) =    -11.58699  eV     1   --> B_1  G_3 D_2   
     e(  3 -  3) =    -11.32405  eV     1   --> A_1  G_1 D_1   
     e(  4 -  5) =    -10.79479  eV     2   --> E    G_5 D_5   
     e(  6 -  6) =    -10.77743  eV     1   --> B_2  G_4 D_2'  
     e(  7 -  7) =     -8.36917  eV     1   --> A_1  G_1 D_1   
     e(  8 -  8) =     -7.25093  eV     1   --> A_1  G_1 D_1   
     e(  9 - 10) =     -5.97775  eV     2   --> E    G_5 D_5   
     e( 11 - 11) =     -5.67955  eV     1   --> B_1  G_3 D_2   
     e( 12 - 12) =     -5.65538  eV     1   --> A_1  G_1 D_1   
     e( 13 - 14) =      4.42756  eV     2   --> E    G_5 D_5   
     e( 15 - 15) =      4.48842  eV     1   --> A_1  G_1 D_1   
     e( 16 - 16) =      6.71857  eV     1   --> A_1  G_1 D_1   
     e( 17 - 17) =      7.56128  eV     1   --> B_1  G_3 D_2   
     e( 18 - 19) =      7.90676  eV     2   --> E    G_5 D_5   
     e( 20 - 21) =      8.06833  eV     2   --> E    G_5 D_5   
     e( 22 - 22) =     13.58544  eV     1   --> A_1  G_1 D_1   
     e( 23 - 23) =     15.63508  eV     1   --> A_1  G_1 D_1   
     e( 24 - 24) =     15.75371  eV     1   --> B_1  G_3 D_2   
     e( 25 - 25) =     16.54566  eV     1   --> B_2  G_4 D_2'  
     e( 26 - 27) =     17.40224  eV     2   --> E    G_5 D_5   
     e( 28 - 28) =     17.61021  eV     1   --> A_1  G_1 D_1   
     e( 29 - 29) =     19.59417  eV     1   --> A_1  G_1 D_1   
     e( 30 - 30) =     21.89176  eV     1   --> A_1  G_1 D_1   
     e( 31 - 32) =     22.11009  eV     2   --> E    G_5 D_5   

 **************************************************************************

 **************************************************************************

                    xk=(   0.00000,   0.42500,   0.00000  )

     Band symmetry, C_4v (4mm)  point group:

     e(  1 -  1) =    -24.04001  eV     1   --> A_1  G_1 D_1   
     e(  2 -  2) =    -11.58682  eV     1   --> B_1  G_3 D_2   
     e(  3 -  3) =    -11.31186  eV     1   --> A_1  G_1 D_1   
     e(  4 -  5) =    -10.79548  eV     2   --> E    G_5 D_5   
     e(  6 -  6) =    -10.77741  eV     1   --> B_2  G_4 D_2'  
     e(  7 -  7) =     -8.31679  eV     1   --> A_1  G_1 D_1   
     e(  8 -  8) =     -7.34041  eV     1   --> A_1  G_1 D_1   
     e(  9 - 10) =     -5.97610  eV     2   --> E    G_5 D_5   
     e( 11 - 11) =     -5.67863  eV     1   --> B_1  G_3 D_2   
     e( 12 - 12) =     -5.65233  eV     1   --> A_1  G_1 D_1   
     e( 13 - 14) =      4.43345  eV     2   --> E    G_5 D_5   
     e( 15 - 15) =      4.50259  eV     1   --> A_1  G_1 D_1   
     e( 16 - 16) =      6.66486  eV     1   --> A_1  G_1 D_1   
     e( 17 - 17) =      7.53867  eV     1   --> B_1  G_3 D_2   
     e( 18 - 19) =      7.90370  eV     2   --> E    G_5 D_5   
     e( 20 - 21) =      8.04983  eV     2   --> E    G_5 D_5   
     e( 22 - 22) =     13.77869  eV     1   --> A_1  G_1 D_1   
     e( 23 - 23) =     15.68944  eV     1   --> A_1  G_1 D_1   
     e( 24 - 24) =     15.82025  eV     1   --> B_1  G_3 D_2   
     e( 25 - 25) =     16.56101  eV     1   --> B_2  G_4 D_2'  
     e( 26 - 27) =     17.45825  eV     2   --> E    G_5 D_5   
     e( 28 - 28) =     17.89646  eV     1   --> A_1  G_1 D_1   
     e( 29 - 29) =     19.37536  eV     1   --> A_1  G_1 D_1   
     e( 30 - 30) =     21.59164  eV     1   --> A_1  G_1 D_1   
     e( 31 - 32) =     22.15763  eV     2   --> E    G_5 D_5   

 **************************************************************************

 **************************************************************************

                    xk=(   0.00000,   0.45000,   0.00000  )

     Band symmetry, C_4v (4mm)  point group:

     e(  1 -  1) =    -24.03969  eV     1   --> A_1  G_1 D_1   
     e(  2 -  2) =    -11.58666  eV     1   --> B_1  G_3 D_2   
     e(  3 -  3) =    -11.30289  eV     1   --> A_1  G_1 D_1   
     e(  4 -  5) =    -10.79611  eV     2   --> E    G_5 D_5   
     e(  6 -  6) =    -10.77736  eV     1   --> B_2  G_4 D_2'  
     e(  7 -  7) =     -8.27095  eV     1   --> A_1  G_1 D_1   
     e(  8 -  8) =     -7.41336  eV     1   --> A_1  G_1 D_1   
     e(  9 - 10) =     -5.97490  eV     2   --> E    G_5 D_5   
     e( 11 - 11) =     -5.67797  eV     1   --> B_1  G_3 D_2   
     e( 12 - 12) =     -5.65008  eV     1   --> A_1  G_1 D_1   
     e( 13 - 14) =      4.43772  eV     2   --> E    G_5 D_5   
     e( 15 - 15) =      4.51342  eV     1   --> A_1  G_1 D_1   
     e( 16 - 16) =      6.62570  eV     1   --> A_1  G_1 D_1   
     e( 17 - 17) =      7.52217  eV     1   --> B_1  G_3 D_2   
     e( 18 - 19) =      7.90257  eV     2   --> E    G_5 D_5   
     e( 20 - 21) =      8.03528  eV     2   --> E    G_5 D_5   
     e( 22 - 22) =     13.92768  eV     1   --> A_1  G_1 D_1   
     e( 23 - 23) =     15.72706  eV     1   --> A_1  G_1 D_1   
     e( 24 - 24) =     15.86926  eV     1   --> B_1  G_3 D_2   
     e( 25 - 25) =     16.57237  eV     1   --> B_2  G_4 D_2'  
     e( 26 - 27) =     17.49953  eV     2   --> E    G_5 D_5   
     e( 28 - 28) =     18.17713  eV     1   --> A_1  G_1 D_1   
     e( 29 - 29) =     19.15823  eV     1   --> A_1  G_1 D_1   
     e( 30 - 30) =     21.35364  eV     1   --> A_1  G_1 D_1   
     e( 31 - 32) =     22.20707  eV     2   --> E    G_5 D_5   

 **************************************************************************

 **************************************************************************

                    xk=(   0.00000,   0.47500,   0.00000  )

     Band symmetry, C_4v (4mm)  point group:

     e(  1 -  1) =    -24.03949  eV     1   --> A_1  G_1 D_1   
     e(  2 -  2) =    -11.58657  eV     1   --> B_1  G_3 D_2   
     e(  3 -  3) =    -11.29759  eV     1   --> A_1  G_1 D_1   
     e(  4 -  5) =    -10.79627  eV     2   --> E    G_5 D_5   
     e(  6 -  6) =    -10.77722  eV     1   --> B_2  G_4 D_2'  
     e(  7 -  7) =     -8.23851  eV     1   --> A_1  G_1 D_1   
     e(  8 -  8) =     -7.46232  eV     1   --> A_1  G_1 D_1   
     e(  9 - 10) =     -5.97415  eV     2   --> E    G_5 D_5   
     e( 11 - 11) =     -5.67756  eV     1   --> B_1  G_3 D_2   
     e( 12 - 12) =     -5.64871  eV     1   --> A_1  G_1 D_1   
     e( 13 - 14) =      4.44034  eV     2   --> E    G_5 D_5   
     e( 15 - 15) =      4.52023  eV     1   --> A_1  G_1 D_1   
     e( 16 - 16) =      6.60190  eV     1   --> A_1  G_1 D_1   
     e( 17 - 17) =      7.51213  eV     1   --> B_1  G_3 D_2   
     e( 18 - 19) =      7.90247  eV     2   --> E    G_5 D_5   
     e( 20 - 21) =      8.02587  eV     2   --> E    G_5 D_5   
     e( 22 - 22) =     14.02231  eV     1   --> A_1  G_1 D_1   
     e( 23 - 23) =     15.74873  eV     1   --> A_1  G_1 D_1   
     e( 24 - 24) =     15.89927  eV     1   --> B_1  G_3 D_2   
     e( 25 - 25) =     16.57935  eV     1   --> B_2  G_4 D_2'  
     e( 26 - 27) =     17.52484  eV     2   --> E    G_5 D_5   
     e( 28 - 28) =     18.44511  eV     1   --> A_1  G_1 D_1   
     e( 29 - 29) =     18.93713  eV     1   --> A_1  G_1 D_1   
     e( 30 - 30) =     21.19838  eV     1   --> A_1  G_1 D_1   
     e( 31 - 32) =     22.24907  eV     2   --> E    G_5 D_5   

 **************************************************************************

 **************************************************************************

                    xk=(   0.00000,   0.50000,   0.00000  )

     point group D_4h(4/mmm)
     there are 10 classes
     the character table:

       E     2C4   C2    2C2'  2C2'' i     2S4   s_h   2s_v  2s_d 
A_1g   1.00  1.00  1.00  1.00  1.00  1.00  1.00  1.00  1.00  1.00
A_2g   1.00  1.00  1.00 -1.00 -1.00  1.00  1.00  1.00 -1.00 -1.00
B_1g   1.00 -1.00  1.00  1.00 -1.00  1.00 -1.00  1.00  1.00 -1.00
B_2g   1.00 -1.00  1.00 -1.00  1.00  1.00 -1.00  1.00 -1.00  1.00
E_g    2.00  0.00 -2.00  0.00  0.00  2.00  0.00 -2.00  0.00  0.00
A_1u   1.00  1.00  1.00  1.00  1.00 -1.00 -1.00 -1.00 -1.00 -1.00
A_2u   1.00  1.00  1.00 -1.00 -1.00 -1.00 -1.00 -1.00  1.00  1.00
B_1u   1.00 -1.00  1.00  1.00 -1.00 -1.00  1.00 -1.00 -1.00  1.00
B_2u   1.00 -1.00  1.00 -1.00  1.00 -1.00  1.00 -1.00  1.00 -1.00
E_u    2.00  0.00 -2.00  0.00  0.00 -2.00  0.00  2.00  0.00  0.00

     the symmetry operations in each class and the name of the first element:

     E        1
                                                                 
     2C4      7    8
                                                                 
     C2       3
                                                                 
     2C2'     2    4
                                                                 
     2C2''    5    6
                                                                 
     i        9
                                                                 
     2S4     15   16
                                                                 
     s_h     11
                                                                 
     2s_v    10   12
                                                                 
     2s_d    13   14
                                                                 

     Band symmetry, D_4h(4/mmm) point group:

     e(  1 -  1) =    -24.03942  eV     1   --> A_2u X_4' M_4' 
     e(  2 -  2) =    -11.58653  eV     1   --> B_1g X_2  M_2  
     e(  3 -  3) =    -11.29543  eV     1   --> A_1g X_1  M_1  
     e(  4 -  5) =    -10.79622  eV     2   --> E_g  X_5  M_5  
     e(  6 -  6) =    -10.77720  eV     1   --> B_2g X_3  M_3  
     e(  7 -  7) =     -8.22654  eV     1   --> A_1g X_1  M_1  
     e(  8 -  8) =     -7.47976  eV     1   --> A_2u X_4' M_4' 
     e(  9 - 10) =     -5.97390  eV     2   --> E_g  X_5  M_5  
     e( 11 - 11) =     -5.67742  eV     1   --> B_1g X_2  M_2  
     e( 12 - 12) =     -5.64823  eV     1   --> A_1g X_1  M_1  
     e( 13 - 14) =      4.44122  eV     2   --> E_u  X_5' M_5' 
     e( 15 - 15) =      4.52259  eV     1   --> A_1g X_1  M_1  
     e( 16 - 16) =      6.59400  eV     1   --> A_2u X_4' M_4' 
     e( 17 - 17) =      7.50878  eV     1   --> B_2u X_3' M_3' 
     e( 18 - 19) =      7.90257  eV     2   --> E_g  X_5  M_5  
     e( 20 - 21) =      8.02259  eV     2   --> E_u  X_5' M_5' 
     e( 22 - 22) =     14.05490  eV     1   --> A_1g X_1  M_1  
     e( 23 - 23) =     15.75574  eV     1   --> A_2u X_4' M_4' 
     e( 24 - 24) =     15.90938  eV     1   --> B_2u X_3' M_3' 
     e( 25 - 25) =     16.58171  eV     1   --> B_1u X_2' M_2' 
     e( 26 - 27) =     17.53337  eV     2   --> E_u  X_5' M_5' 
     e( 28 - 28) =     18.66550  eV     1   -->   ?
     e( 29 - 29) =     18.73430  eV     1   -->   ?
     e( 30 - 30) =     21.14412  eV     1   --> A_2u X_4' M_4' 
     e( 31 - 32) =     22.26682  eV     2   --> E_u  X_5' M_5' 

 **************************************************************************

 **************************************************************************

                    xk=(   0.02500,   0.50000,   0.00000  )

     point group C_2v (mm2) 
     there are  4 classes
     the character table:

       E     C2    s_v   s_v' 
A_1    1.00  1.00  1.00  1.00
A_2    1.00  1.00 -1.00 -1.00
B_1    1.00 -1.00  1.00 -1.00
B_2    1.00 -1.00 -1.00  1.00

     the symmetry operations in each class and the name of the first element:

     E        1
                                                                 
     C2       2
                                                                 
     s_v      4
                                                                 
     s_v'     3
                                                                 

     Band symmetry, C_2v (mm2)  point group:

     e(  1 -  1) =    -24.03937  eV     1   --> B_2  D_4  S_4  
     e(  2 -  2) =    -11.58529  eV     1   --> A_1  D_1  S_1  
     e(  3 -  3) =    -11.29459  eV     1   --> A_1  D_1  S_1  
     e(  4 -  4) =    -10.79637  eV     1   -->   ?
     e(  5 -  5) =    -10.79622  eV     1   -->   ?
     e(  6 -  6) =    -10.77743  eV     1   --> B_1  D_3  S_3  
     e(  7 -  7) =     -8.22495  eV     1   --> A_1  D_1  S_1  
     e(  8 -  8) =     -7.48145  eV     1   --> B_2  D_4  S_4  
     e(  9 -  9) =     -5.97378  eV     1   -->   ?
     e( 10 - 10) =     -5.97260  eV     1   -->   ?
     e( 11 - 11) =     -5.68338  eV     1   --> A_1  D_1  S_1  
     e( 12 - 12) =     -5.64928  eV     1   --> A_1  D_1  S_1  
     e( 13 - 13) =      4.27018  eV     1   --> A_1  D_1  S_1  
     e( 14 - 14) =      4.44358  eV     1   --> B_1  D_3  S_3  
     e( 15 - 15) =      4.70047  eV     1   --> A_1  D_1  S_1  
     e( 16 - 16) =      6.59138  eV     1   --> B_2  D_4  S_4  
     e( 17 - 17) =      7.49582  eV     1   --> B_2  D_4  S_4  
     e( 18 - 18) =      7.90013  eV     1   -->   ?
     e( 19 - 19) =      7.92122  eV     1   -->   ?
     e( 20 - 20) =      8.01995  eV     1   --> B_1  D_3  S_3  
     e( 21 - 21) =      8.02346  eV     1   --> A_1  D_1  S_1  
     e( 22 - 22) =     14.06135  eV     1   --> A_1  D_1  S_1  
     e( 23 - 23) =     15.76350  eV     1   --> B_2  D_4  S_4  
     e( 24 - 24) =     15.91394  eV     1   --> B_2  D_4  S_4  
     e( 25 - 25) =     16.58777  eV     1   --> A_2  D_2  S_2  
     e( 26 - 26) =     17.52033  eV     1   -->   ?
     e( 27 - 27) =     17.53366  eV     1   -->   ?
     e( 28 - 28) =     18.67665  eV     1   -->   ?
     e( 29 - 29) =     18.73077  eV     1   -->   ?
     e( 30 - 30) =     21.10881  eV     1   --> B_2  D_4  S_4  
     e( 31 - 31) =     22.11669  eV     1   --> B_1  D_3  S_3  
     e( 32 - 32) =     22.24685  eV     1   --> A_1  D_1  S_1  

 **************************************************************************

 **************************************************************************

                    xk=(   0.05000,   0.50000,   0.00000  )

     Band symmetry, C_2v (mm2)  point group:

     e(  1 -  1) =    -24.03920  eV     1   --> B_2  D_4  S_4  
     e(  2 -  2) =    -11.58127  eV     1   --> A_1  D_1  S_1  
     e(  3 -  3) =    -11.29192  eV     1   --> A_1  D_1  S_1  
     e(  4 -  4) =    -10.79692  eV     1   --> B_2  D_4  S_4  
     e(  5 -  5) =    -10.79634  eV     1   --> A_2  D_2  S_2  
     e(  6 -  6) =    -10.77769  eV     1   --> B_1  D_3  S_3  
     e(  7 -  7) =     -8.22016  eV     1   --> A_1  D_1  S_1  
     e(  8 -  8) =     -7.48646  eV     1   --> B_2  D_4  S_4  
     e(  9 -  9) =     -5.97341  eV     1   --> A_2  D_2  S_2  
     e( 10 - 10) =     -5.96869  eV     1   --> B_2  D_4  S_4  
     e( 11 - 11) =     -5.70138  eV     1   --> A_1  D_1  S_1  
     e( 12 - 12) =     -5.65209  eV     1   --> A_1  D_1  S_1  
     e( 13 - 13) =      4.07241  eV     1   --> A_1  D_1  S_1  
     e( 14 - 14) =      4.45065  eV     1   --> B_1  D_3  S_3  
     e( 15 - 15) =      4.91866  eV     1   --> A_1  D_1  S_1  
     e( 16 - 16) =      6.58323  eV     1   --> B_2  D_4  S_4  
     e( 17 - 17) =      7.46389  eV     1   --> B_2  D_4  S_4  
     e( 18 - 18) =      7.89280  eV     1   --> A_2  D_2  S_2  
     e( 19 - 19) =      7.97064  eV     1   --> B_2  D_4  S_4  
     e( 20 - 20) =      8.01209  eV     1   -->   ?
     e( 21 - 21) =      8.02617  eV     1   -->   ?
     e( 22 - 22) =     14.08071  eV     1   --> A_1  D_1  S_1  
     e( 23 - 23) =     15.78642  eV     1   --> B_2  D_4  S_4  
     e( 24 - 24) =     15.92785  eV     1   --> B_2  D_4  S_4  
     e( 25 - 25) =     16.60583  eV     1   --> A_2  D_2  S_2  
     e( 26 - 26) =     17.48276  eV     1   -->   ?
     e( 27 - 27) =     17.53478  eV     1   -->   ?
     e( 28 - 28) =     18.70818  eV     1   --> A_1  D_1  S_1  
     e( 29 - 29) =     18.72027  eV     1   --> B_2  D_4  S_4  
     e( 30 - 30) =     21.01222  eV     1   --> B_2  D_4  S_4  
     e( 31 - 31) =     21.89410  eV     1   --> B_1  D_3  S_3  
     e( 32 - 32) =     22.18874  eV     1   --> A_1  D_1  S_1  

 **************************************************************************

 **************************************************************************

                    xk=(   0.07500,   0.50000,   0.00000  )

     Band symmetry, C_2v (mm2)  point group:

     e(  1 -  1) =    -24.03891  eV     1   --> B_2  D_4  S_4  
     e(  2 -  2) =    -11.57496  eV     1   --> A_1  D_1  S_1  
     e(  3 -  3) =    -11.28731  eV     1   --> A_1  D_1  S_1  
     e(  4 -  4) =    -10.79724  eV     1   --> B_2  D_4  S_4  
     e(  5 -  5) =    -10.79613  eV     1   --> A_2  D_2  S_2  
     e(  6 -  6) =    -10.77791  eV     1   --> B_1  D_3  S_3  
     e(  7 -  7) =     -8.21216  eV     1   --> A_1  D_1  S_1  
     e(  8 -  8) =     -7.49461  eV     1   --> B_2  D_4  S_4  
     e(  9 -  9) =     -5.97278  eV     1   --> A_2  D_2  S_2  
     e( 10 - 10) =     -5.96234  eV     1   --> B_2  D_4  S_4  
     e( 11 - 11) =     -5.73137  eV     1   --> A_1  D_1  S_1  
     e( 12 - 12) =     -5.65637  eV     1   --> A_1  D_1  S_1  
     e( 13 - 13) =      3.88260  eV     1   --> A_1  D_1  S_1  
     e( 14 - 14) =      4.46233  eV     1   --> B_1  D_3  S_3  
     e( 15 - 15) =      5.14182  eV     1   --> A_1  D_1  S_1  
     e( 16 - 16) =      6.56916  eV     1   --> B_2  D_4  S_4  
     e( 17 - 17) =      7.42532  eV     1   --> B_2  D_4  S_4  
     e( 18 - 18) =      7.88093  eV     1   --> A_2  D_2  S_2  
     e( 19 - 19) =      7.99910  eV     1   --> B_1  D_3  S_3  
     e( 20 - 20) =      8.03095  eV     1   -->   ?
     e( 21 - 21) =      8.03879  eV     1   -->   ?
     e( 22 - 22) =     14.11316  eV     1   --> A_1  D_1  S_1  
     e( 23 - 23) =     15.82333  eV     1   --> B_2  D_4  S_4  
     e( 24 - 24) =     15.95199  eV     1   --> B_2  D_4  S_4  
     e( 25 - 25) =     16.63547  eV     1   --> A_2  D_2  S_2  
     e( 26 - 26) =     17.42529  eV     1   --> A_1  D_1  S_1  
     e( 27 - 27) =     17.53653  eV     1   --> B_1  D_3  S_3  
     e( 28 - 28) =     18.70289  eV     1   --> B_2  D_4  S_4  
     e( 29 - 29) =     18.75544  eV     1   --> A_1  D_1  S_1  
     e( 30 - 30) =     20.87408  eV     1   --> B_2  D_4  S_4  
     e( 31 - 31) =     21.67316  eV     1   --> B_1  D_3  S_3  
     e( 32 - 32) =     22.09716  eV     1   --> A_1  D_1  S_1  

 **************************************************************************

 **************************************************************************

                    xk=(   0.10000,   0.50000,   0.00000  )

     Band symmetry, C_2v (mm2)  point group:

     e(  1 -  1) =    -24.03854  eV     1   --> B_2  D_4  S_4  
     e(  2 -  2) =    -11.56652  eV     1   --> A_1  D_1  S_1  
     e(  3 -  3) =    -11.28074  eV     1   --> A_1  D_1  S_1  
     e(  4 -  4) =    -10.79800  eV     1   --> B_2  D_4  S_4  
     e(  5 -  5) =    -10.79612  eV     1   --> A_2  D_2  S_2  
     e(  6 -  6) =    -10.77861  eV     1   --> B_1  D_3  S_3  
     e(  7 -  7) =     -8.20093  eV     1   --> A_1  D_1  S_1  
     e(  8 -  8) =     -7.50564  eV     1   --> B_2  D_4  S_4  
     e(  9 -  9) =     -5.97194  eV     1   --> A_2  D_2  S_2  
     e( 10 - 10) =     -5.95378  eV     1   --> B_2  D_4  S_4  
     e( 11 - 11) =     -5.77286  eV     1   --> A_1  D_1  S_1  
     e( 12 - 12) =     -5.66207  eV     1   --> A_1  D_1  S_1  
     e( 13 - 13) =      3.70251  eV     1   --> A_1  D_1  S_1  
     e( 14 - 14) =      4.47834  eV     1   --> B_1  D_3  S_3  
     e( 15 - 15) =      5.36703  eV     1   --> A_1  D_1  S_1  
     e( 16 - 16) =      6.54839  eV     1   --> B_2  D_4  S_4  
     e( 17 - 17) =      7.38886  eV     1   --> B_2  D_4  S_4  
     e( 18 - 18) =      7.86478  eV     1   --> A_2  D_2  S_2  
     e( 19 - 19) =      7.98129  eV     1   --> B_1  D_3  S_3  
     e( 20 - 20) =      8.03767  eV     1   --> A_1  D_1  S_1  
     e( 21 - 21) =      8.11718  eV     1   --> B_2  D_4  S_4  
     e( 22 - 22) =     14.15874  eV     1   --> A_1  D_1  S_1  
     e( 23 - 23) =     15.87151  eV     1   --> B_2  D_4  S_4  
     e( 24 - 24) =     15.98847  eV     1   --> B_2  D_4  S_4  
     e( 25 - 25) =     16.67597  eV     1   --> A_2  D_2  S_2  
     e( 26 - 26) =     17.35317  eV     1   --> A_1  D_1  S_1  
     e( 27 - 27) =     17.53891  eV     1   --> B_1  D_3  S_3  
     e( 28 - 28) =     18.67877  eV     1   --> B_2  D_4  S_4  
     e( 29 - 29) =     18.81253  eV     1   --> A_1  D_1  S_1  
     e( 30 - 30) =     20.71250  eV     1   --> B_2  D_4  S_4  
     e( 31 - 31) =     21.46117  eV     1   --> B_1  D_3  S_3  
     e( 32 - 32) =     21.97864  eV     1   --> A_1  D_1  S_1  

 **************************************************************************

 **************************************************************************

                    xk=(   0.12500,   0.50000,   0.00000  )

     Band symmetry, C_2v (mm2)  point group:

     e(  1 -  1) =    -24.03806  eV     1   --> B_2  D_4  S_4  
     e(  2 -  2) =    -11.55647  eV     1   --> A_1  D_1  S_1  
     e(  3 -  3) =    -11.27199  eV     1   --> A_1  D_1  S_1  
     e(  4 -  4) =    -10.79889  eV     1   --> B_2  D_4  S_4  
     e(  5 -  5) =    -10.79599  eV     1   --> A_2  D_2  S_2  
     e(  6 -  6) =    -10.77950  eV     1   --> B_1  D_3  S_3  
     e(  7 -  7) =     -8.18647  eV     1   --> A_1  D_1  S_1  
     e(  8 -  8) =     -7.51919  eV     1   --> B_2  D_4  S_4  
     e(  9 -  9) =     -5.97089  eV     1   --> A_2  D_2  S_2  
     e( 10 - 10) =     -5.94330  eV     1   --> B_2  D_4  S_4  
     e( 11 - 11) =     -5.82515  eV     1   --> A_1  D_1  S_1  
     e( 12 - 12) =     -5.66906  eV     1   --> A_1  D_1  S_1  
     e( 13 - 13) =      3.53303  eV     1   --> A_1  D_1  S_1  
     e( 14 - 14) =      4.49849  eV     1   --> B_1  D_3  S_3  
     e( 15 - 15) =      5.59214  eV     1   --> A_1  D_1  S_1  
     e( 16 - 16) =      6.52050  eV     1   --> B_2  D_4  S_4  
     e( 17 - 17) =      7.35945  eV     1   --> B_2  D_4  S_4  
     e( 18 - 18) =      7.84483  eV     1   --> A_2  D_2  S_2  
     e( 19 - 19) =      7.95891  eV     1   --> B_1  D_3  S_3  
     e( 20 - 20) =      8.04641  eV     1   --> A_1  D_1  S_1  
     e( 21 - 21) =      8.20097  eV     1   --> B_2  D_4  S_4  
     e( 22 - 22) =     14.21771  eV     1   --> A_1  D_1  S_1  
     e( 23 - 23) =     15.92604  eV     1   --> B_2  D_4  S_4  
     e( 24 - 24) =     16.04141  eV     1   --> B_2  D_4  S_4  
     e( 25 - 25) =     16.72642  eV     1   --> A_2  D_2  S_2  
     e( 26 - 26) =     17.27143  eV     1   --> A_1  D_1  S_1  
     e( 27 - 27) =     17.54190  eV     1   --> B_1  D_3  S_3  
     e( 28 - 28) =     18.64818  eV     1   --> B_2  D_4  S_4  
     e( 29 - 29) =     18.87351  eV     1   --> A_1  D_1  S_1  
     e( 30 - 30) =     20.54027  eV     1   --> B_2  D_4  S_4  
     e( 31 - 31) =     21.26007  eV     1   --> B_1  D_3  S_3  
     e( 32 - 32) =     21.84035  eV     1   --> A_1  D_1  S_1  

 **************************************************************************

 **************************************************************************

                    xk=(   0.15000,   0.50000,   0.00000  )

     Band symmetry, C_2v (mm2)  point group:

     e(  1 -  1) =    -24.03751  eV     1   --> B_2  D_4  S_4  
     e(  2 -  2) =    -11.54538  eV     1   --> A_1  D_1  S_1  
     e(  3 -  3) =    -11.26087  eV     1   --> A_1  D_1  S_1  
     e(  4 -  4) =    -10.79991  eV     1   --> B_2  D_4  S_4  
     e(  5 -  5) =    -10.79584  eV     1   --> A_2  D_2  S_2  
     e(  6 -  6) =    -10.78053  eV     1   --> B_1  D_3  S_3  
     e(  7 -  7) =     -8.16874  eV     1   --> A_1  D_1  S_1  
     e(  8 -  8) =     -7.53482  eV     1   --> B_2  D_4  S_4  
     e(  9 -  9) =     -5.96966  eV     1   --> A_2  D_2  S_2  
     e( 10 - 10) =     -5.93124  eV     1   --> B_2  D_4  S_4  
     e( 11 - 11) =     -5.88737  eV     1   --> A_1  D_1  S_1  
     e( 12 - 12) =     -5.67721  eV     1   --> A_1  D_1  S_1  
     e( 13 - 13) =      3.37473  eV     1   --> A_1  D_1  S_1  
     e( 14 - 14) =      4.52242  eV     1   --> B_1  D_3  S_3  
     e( 15 - 15) =      5.81476  eV     1   --> A_1  D_1  S_1  
     e( 16 - 16) =      6.48560  eV     1   --> B_2  D_4  S_4  
     e( 17 - 17) =      7.33940  eV     1   --> B_2  D_4  S_4  
     e( 18 - 18) =      7.82166  eV     1   --> A_2  D_2  S_2  
     e( 19 - 19) =      7.93235  eV     1   --> B_1  D_3  S_3  
     e( 20 - 20) =      8.05724  eV     1   --> A_1  D_1  S_1  
     e( 21 - 21) =      8.28719  eV     1   --> B_2  D_4  S_4  
     e( 22 - 22) =     14.29019  eV     1   --> A_1  D_1  S_1  
     e( 23 - 23) =     15.98149  eV     1   --> B_2  D_4  S_4  
     e( 24 - 24) =     16.11518  eV     1   --> B_2  D_4  S_4  
     e( 25 - 25) =     16.78565  eV     1   --> A_2  D_2  S_2  
     e( 26 - 26) =     17.18417  eV     1   --> A_1  D_1  S_1  
     e( 27 - 27) =     17.54542  eV     1   --> B_1  D_3  S_3  
     e( 28 - 28) =     18.61142  eV     1   --> B_2  D_4  S_4  
     e( 29 - 29) =     18.93267  eV     1   --> A_1  D_1  S_1  
     e( 30 - 30) =     20.36586  eV     1   --> B_2  D_4  S_4  
     e( 31 - 31) =     21.07072  eV     1   --> B_1  D_3  S_3  
     e( 32 - 32) =     21.68956  eV     1   --> A_1  D_1  S_1  

 **************************************************************************

 **************************************************************************

                    xk=(   0.17500,   0.50000,   0.00000  )

     Band symmetry, C_2v (mm2)  point group:

     e(  1 -  1) =    -24.03688  eV     1   --> B_2  D_4  S_4  
     e(  2 -  2) =    -11.53354  eV     1   --> A_1  D_1  S_1  
     e(  3 -  3) =    -11.24719  eV     1   --> A_1  D_1  S_1  
     e(  4 -  4) =    -10.80088  eV     1   --> B_2  D_4  S_4  
     e(  5 -  5) =    -10.79563  eV     1   --> A_2  D_2  S_2  
     e(  6 -  6) =    -10.78161  eV     1   --> B_1  D_3  S_3  
     e(  7 -  7) =     -8.14770  eV     1   --> A_1  D_1  S_1  
     e(  8 -  8) =     -7.55208  eV     1   --> B_2  D_4  S_4  
     e(  9 -  9) =     -5.96828  eV     1   --> A_2  D_2  S_2  
     e( 10 - 10) =     -5.95843  eV     1   --> A_1  D_1  S_1  
     e( 11 - 11) =     -5.91796  eV     1   --> B_2  D_4  S_4  
     e( 12 - 12) =     -5.68635  eV     1   --> A_1  D_1  S_1  
     e( 13 - 13) =      3.22797  eV     1   --> A_1  D_1  S_1  
     e( 14 - 14) =      4.54975  eV     1   --> B_1  D_3  S_3  
     e( 15 - 15) =      6.03247  eV     1   --> A_1  D_1  S_1  
     e( 16 - 16) =      6.44457  eV     1   --> B_2  D_4  S_4  
     e( 17 - 17) =      7.32920  eV     1   --> B_2  D_4  S_4  
     e( 18 - 18) =      7.79595  eV     1   --> A_2  D_2  S_2  
     e( 19 - 19) =      7.90207  eV     1   --> B_1  D_3  S_3  
     e( 20 - 20) =      8.07042  eV     1   --> A_1  D_1  S_1  
     e( 21 - 21) =      8.37394  eV     1   --> B_2  D_4  S_4  
     e( 22 - 22) =     14.37634  eV     1   --> A_1  D_1  S_1  
     e( 23 - 23) =     16.03619  eV     1   --> B_2  D_4  S_4  
     e( 24 - 24) =     16.21013  eV     1   --> B_2  D_4  S_4  
     e( 25 - 25) =     16.85229  eV     1   --> A_2  D_2  S_2  
     e( 26 - 26) =     17.09477  eV     1   --> A_1  D_1  S_1  
     e( 27 - 27) =     17.54943  eV     1   --> B_1  D_3  S_3  
     e( 28 - 28) =     18.56891  eV     1   --> B_2  D_4  S_4  
     e( 29 - 29) =     18.98416  eV     1   --> A_1  D_1  S_1  
     e( 30 - 30) =     20.19502  eV     1   --> B_2  D_4  S_4  
     e( 31 - 31) =     20.89362  eV     1   --> B_1  D_3  S_3  
     e( 32 - 32) =     21.53360  eV     1   --> A_1  D_1  S_1  

 **************************************************************************

 **************************************************************************

                    xk=(   0.20000,   0.50000,   0.00000  )

     Band symmetry, C_2v (mm2)  point group:

     e(  1 -  1) =    -24.03622  eV     1   --> B_2  D_4  S_4  
     e(  2 -  2) =    -11.52187  eV     1   --> A_1  D_1  S_1  
     e(  3 -  3) =    -11.23123  eV     1   --> A_1  D_1  S_1  
     e(  4 -  4) =    -10.80207  eV     1   --> B_2  D_4  S_4  
     e(  5 -  5) =    -10.79563  eV     1   --> A_2  D_2  S_2  
     e(  6 -  6) =    -10.78289  eV     1   --> B_1  D_3  S_3  
     e(  7 -  7) =     -8.12342  eV     1   --> A_1  D_1  S_1  
     e(  8 -  8) =     -7.57049  eV     1   --> B_2  D_4  S_4  
     e(  9 -  9) =     -6.03724  eV     1   --> A_1  D_1  S_1  
     e( 10 - 10) =     -5.96679  eV     1   --> A_2  D_2  S_2  
     e( 11 - 11) =     -5.90386  eV     1   --> B_2  D_4  S_4  
     e( 12 - 12) =     -5.69629  eV     1   --> A_1  D_1  S_1  
     e( 13 - 13) =      3.09292  eV     1   --> A_1  D_1  S_1  
     e( 14 - 14) =      4.57989  eV     1   --> B_1  D_3  S_3  
     e( 15 - 15) =      6.24263  eV     1   --> A_1  D_1  S_1  
     e( 16 - 16) =      6.39872  eV     1   --> B_2  D_4  S_4  
     e( 17 - 17) =      7.32807  eV     1   --> B_2  D_4  S_4  
     e( 18 - 18) =      7.76832  eV     1   --> A_2  D_2  S_2  
     e( 19 - 19) =      7.86863  eV     1   --> B_1  D_3  S_3  
     e( 20 - 20) =      8.08609  eV     1   --> A_1  D_1  S_1  
     e( 21 - 21) =      8.45968  eV     1   --> B_2  D_4  S_4  
     e( 22 - 22) =     14.47616  eV     1   --> A_1  D_1  S_1  
     e( 23 - 23) =     16.09149  eV     1   --> B_2  D_4  S_4  
     e( 24 - 24) =     16.32320  eV     1   --> B_2  D_4  S_4  
     e( 25 - 25) =     16.92476  eV     1   --> A_2  D_2  S_2  
     e( 26 - 26) =     17.00599  eV     1   --> A_1  D_1  S_1  
     e( 27 - 27) =     17.55382  eV     1   --> B_1  D_3  S_3  
     e( 28 - 28) =     18.52116  eV     1   --> B_2  D_4  S_4  
     e( 29 - 29) =     19.02157  eV     1   --> A_1  D_1  S_1  
     e( 30 - 30) =     20.03187  eV     1   --> B_2  D_4  S_4  
     e( 31 - 31) =     20.72909  eV     1   --> B_1  D_3  S_3  
     e( 32 - 32) =     21.38001  eV     1   --> A_1  D_1  S_1  

 **************************************************************************

 **************************************************************************

                    xk=(   0.22500,   0.50000,   0.00000  )

     Band symmetry, C_2v (mm2)  point group:

     e(  1 -  1) =    -24.03551  eV     1   --> B_2  D_4  S_4  
     e(  2 -  2) =    -11.51060  eV     1   --> A_1  D_1  S_1  
     e(  3 -  3) =    -11.21267  eV     1   --> A_1  D_1  S_1  
     e(  4 -  4) =    -10.80323  eV     1   --> B_2  D_4  S_4  
     e(  5 -  5) =    -10.79544  eV     1   --> A_2  D_2  S_2  
     e(  6 -  6) =    -10.78429  eV     1   --> B_1  D_3  S_3  
     e(  7 -  7) =     -8.09579  eV     1   --> A_1  D_1  S_1  
     e(  8 -  8) =     -7.58953  eV     1   --> B_2  D_4  S_4  
     e(  9 -  9) =     -6.12252  eV     1   --> A_1  D_1  S_1  
     e( 10 - 10) =     -5.96522  eV     1   --> A_2  D_2  S_2  
     e( 11 - 11) =     -5.88932  eV     1   --> B_2  D_4  S_4  
     e( 12 - 12) =     -5.70676  eV     1   --> A_1  D_1  S_1  
     e( 13 - 13) =      2.96966  eV     1   --> A_1  D_1  S_1  
     e( 14 - 14) =      4.61230  eV     1   --> B_1  D_3  S_3  
     e( 15 - 15) =      6.34989  eV     1   --> B_2  D_4  S_4  
     e( 16 - 16) =      6.44264  eV     1   --> A_1  D_1  S_1  
     e( 17 - 17) =      7.33463  eV     1   --> B_2  D_4  S_4  
     e( 18 - 18) =      7.73955  eV     1   --> A_2  D_2  S_2  
     e( 19 - 19) =      7.83272  eV     1   --> B_1  D_3  S_3  
     e( 20 - 20) =      8.10455  eV     1   --> A_1  D_1  S_1  
     e( 21 - 21) =      8.54326  eV     1   --> B_2  D_4  S_4  
     e( 22 - 22) =     14.58953  eV     1   --> A_1  D_1  S_1  
     e( 23 - 23) =     16.14854  eV     1   --> B_2  D_4  S_4  
     e( 24 - 24) =     16.45121  eV     1   --> B_2  D_4  S_4  
     e( 25 - 25) =     16.92031  eV     1   -->   ?
     e( 26 - 26) =     17.00135  eV     1   -->   ?
     e( 27 - 27) =     17.55851  eV     1   --> B_1  D_3  S_3  
     e( 28 - 28) =     18.46909  eV     1   --> B_2  D_4  S_4  
     e( 29 - 29) =     19.03771  eV     1   --> A_1  D_1  S_1  
     e( 30 - 30) =     19.87953  eV     1   --> B_2  D_4  S_4  
     e( 31 - 31) =     20.57737  eV     1   --> B_1  D_3  S_3  
     e( 32 - 32) =     21.23679  eV     1   --> A_1  D_1  S_1  

 **************************************************************************

 **************************************************************************

                    xk=(   0.25000,   0.50000,   0.00000  )

     Band symmetry, C_2v (mm2)  point group:

     e(  1 -  1) =    -24.03479  eV     1   --> B_2  D_4  S_4  
     e(  2 -  2) =    -11.50038  eV     1   --> A_1  D_1  S_1  
     e(  3 -  3) =    -11.19211  eV     1   --> A_1  D_1  S_1  
     e(  4 -  4) =    -10.80471  eV     1   --> B_2  D_4  S_4  
     e(  5 -  5) =    -10.79545  eV     1   --> A_2  D_2  S_2  
     e(  6 -  6) =    -10.78585  eV     1   --> B_1  D_3  S_3  
     e(  7 -  7) =     -8.06491  eV     1   --> A_1  D_1  S_1  
     e(  8 -  8) =     -7.60875  eV     1   --> B_2  D_4  S_4  
     e(  9 -  9) =     -6.21284  eV     1   --> A_1  D_1  S_1  
     e( 10 - 10) =     -5.96362  eV     1   --> A_2  D_2  S_2  
     e( 11 - 11) =     -5.87472  eV     1   --> B_2  D_4  S_4  
     e( 12 - 12) =     -5.71754  eV     1   --> A_1  D_1  S_1  
     e( 13 - 13) =      2.85811  eV     1   --> A_1  D_1  S_1  
     e( 14 - 14) =      4.64628  eV     1   --> B_1  D_3  S_3  
     e( 15 - 15) =      6.29983  eV     1   --> B_2  D_4  S_4  
     e( 16 - 16) =      6.62982  eV     1   --> A_1  D_1  S_1  
     e( 17 - 17) =      7.34717  eV     1   --> B_2  D_4  S_4  
     e( 18 - 18) =      7.71034  eV     1   --> A_2  D_2  S_2  
     e( 19 - 19) =      7.79508  eV     1   --> B_1  D_3  S_3  
     e( 20 - 20) =      8.12587  eV     1   --> A_1  D_1  S_1  
     e( 21 - 21) =      8.62356  eV     1   --> B_2  D_4  S_4  
     e( 22 - 22) =     14.71591  eV     1   --> A_1  D_1  S_1  
     e( 23 - 23) =     16.20754  eV     1   --> B_2  D_4  S_4  
     e( 24 - 24) =     16.59127  eV     1   --> B_2  D_4  S_4  
     e( 25 - 25) =     16.83996  eV     1   --> A_1  D_1  S_1  
     e( 26 - 26) =     17.08029  eV     1   --> A_2  D_2  S_2  
     e( 27 - 27) =     17.56336  eV     1   --> B_1  D_3  S_3  
     e( 28 - 28) =     18.41393  eV     1   --> B_2  D_4  S_4  
     e( 29 - 29) =     19.02492  eV     1   --> A_1  D_1  S_1  
     e( 30 - 30) =     19.74033  eV     1   --> B_2  D_4  S_4  
     e( 31 - 31) =     20.43861  eV     1   --> B_1  D_3  S_3  
     e( 32 - 32) =     21.11206  eV     1   --> A_1  D_1  S_1  

 **************************************************************************

 **************************************************************************

                    xk=(   0.27500,   0.50000,   0.00000  )

     Band symmetry, C_2v (mm2)  point group:

     e(  1 -  1) =    -24.03404  eV     1   --> B_2  D_4  S_4  
     e(  2 -  2) =    -11.49085  eV     1   --> A_1  D_1  S_1  
     e(  3 -  3) =    -11.16964  eV     1   --> A_1  D_1  S_1  
     e(  4 -  4) =    -10.80567  eV     1   --> B_2  D_4  S_4  
     e(  5 -  5) =    -10.79509  eV     1   --> A_2  D_2  S_2  
     e(  6 -  6) =    -10.78695  eV     1   --> B_1  D_3  S_3  
     e(  7 -  7) =     -8.03080  eV     1   --> A_1  D_1  S_1  
     e(  8 -  8) =     -7.62763  eV     1   --> B_2  D_4  S_4  
     e(  9 -  9) =     -6.30657  eV     1   --> A_1  D_1  S_1  
     e( 10 - 10) =     -5.96199  eV     1   --> A_2  D_2  S_2  
     e( 11 - 11) =     -5.86037  eV     1   --> B_2  D_4  S_4  
     e( 12 - 12) =     -5.72834  eV     1   --> A_1  D_1  S_1  
     e( 13 - 13) =      2.75826  eV     1   --> A_1  D_1  S_1  
     e( 14 - 14) =      4.68118  eV     1   --> B_1  D_3  S_3  
     e( 15 - 15) =      6.25034  eV     1   --> B_2  D_4  S_4  
     e( 16 - 16) =      6.80172  eV     1   --> A_1  D_1  S_1  
     e( 17 - 17) =      7.36401  eV     1   --> B_2  D_4  S_4  
     e( 18 - 18) =      7.68151  eV     1   --> A_2  D_2  S_2  
     e( 19 - 19) =      7.75665  eV     1   --> B_1  D_3  S_3  
     e( 20 - 20) =      8.15045  eV     1   --> A_1  D_1  S_1  
     e( 21 - 21) =      8.69972  eV     1   --> B_2  D_4  S_4  
     e( 22 - 22) =     14.85436  eV     1   --> A_1  D_1  S_1  
     e( 23 - 23) =     16.26811  eV     1   --> B_2  D_4  S_4  
     e( 24 - 24) =     16.74037  eV     1   --> B_2  D_4  S_4  
     e( 25 - 25) =     16.76737  eV     1   --> A_1  D_1  S_1  
     e( 26 - 26) =     17.15968  eV     1   --> A_2  D_2  S_2  
     e( 27 - 27) =     17.56833  eV     1   --> B_1  D_3  S_3  
     e( 28 - 28) =     18.35770  eV     1   --> B_2  D_4  S_4  
     e( 29 - 29) =     18.97645  eV     1   --> A_1  D_1  S_1  
     e( 30 - 30) =     19.61609  eV     1   --> B_2  D_4  S_4  
     e( 31 - 31) =     20.31296  eV     1   --> B_1  D_3  S_3  
     e( 32 - 32) =     21.01285  eV     1   --> A_1  D_1  S_1  

 **************************************************************************

 **************************************************************************

                    xk=(   0.30000,   0.50000,   0.00000  )

     Band symmetry, C_2v (mm2)  point group:

     e(  1 -  1) =    -24.03333  eV     1   --> B_2  D_4  S_4  
     e(  2 -  2) =    -11.48276  eV     1   --> A_1  D_1  S_1  
     e(  3 -  3) =    -11.14643  eV     1   --> A_1  D_1  S_1  
     e(  4 -  4) =    -10.80681  eV     1   --> B_2  D_4  S_4  
     e(  5 -  5) =    -10.79490  eV     1   --> A_2  D_2  S_2  
     e(  6 -  6) =    -10.78826  eV     1   --> B_1  D_3  S_3  
     e(  7 -  7) =     -7.99375  eV     1   --> A_1  D_1  S_1  
     e(  8 -  8) =     -7.64577  eV     1   --> B_2  D_4  S_4  
     e(  9 -  9) =     -6.40219  eV     1   --> A_1  D_1  S_1  
     e( 10 - 10) =     -5.96041  eV     1   --> A_2  D_2  S_2  
     e( 11 - 11) =     -5.84666  eV     1   --> B_2  D_4  S_4  
     e( 12 - 12) =     -5.73892  eV     1   --> A_1  D_1  S_1  
     e( 13 - 13) =      2.66978  eV     1   --> A_1  D_1  S_1  
     e( 14 - 14) =      4.71606  eV     1   --> B_1  D_3  S_3  
     e( 15 - 15) =      6.20268  eV     1   --> B_2  D_4  S_4  
     e( 16 - 16) =      6.95597  eV     1   --> A_1  D_1  S_1  
     e( 17 - 17) =      7.38348  eV     1   --> B_2  D_4  S_4  
     e( 18 - 18) =      7.65362  eV     1   --> A_2  D_2  S_2  
     e( 19 - 19) =      7.71818  eV     1   --> B_1  D_3  S_3  
     e( 20 - 20) =      8.17816  eV     1   --> A_1  D_1  S_1  
     e( 21 - 21) =      8.77070  eV     1   --> B_2  D_4  S_4  
     e( 22 - 22) =     15.00301  eV     1   --> A_1  D_1  S_1  
     e( 23 - 23) =     16.32942  eV     1   --> B_2  D_4  S_4  
     e( 24 - 24) =     16.70516  eV     1   --> A_1  D_1  S_1  
     e( 25 - 25) =     16.89452  eV     1   --> B_2  D_4  S_4  
     e( 26 - 26) =     17.23754  eV     1   --> A_2  D_2  S_2  
     e( 27 - 27) =     17.57323  eV     1   --> B_1  D_3  S_3  
     e( 28 - 28) =     18.30345  eV     1   --> B_2  D_4  S_4  
     e( 29 - 29) =     18.88829  eV     1   --> A_1  D_1  S_1  
     e( 30 - 30) =     19.50800  eV     1   --> B_2  D_4  S_4  
     e( 31 - 31) =     20.20044  eV     1   --> B_1  D_3  S_3  
     e( 32 - 32) =     20.94313  eV     1   --> A_1  D_1  S_1  

 **************************************************************************

 **************************************************************************

                    xk=(   0.32500,   0.50000,   0.00000  )

     Band symmetry, C_2v (mm2)  point group:

     e(  1 -  1) =    -24.03266  eV     1   --> B_2  D_4  S_4  
     e(  2 -  2) =    -11.47591  eV     1   --> A_1  D_1  S_1  
     e(  3 -  3) =    -11.12319  eV     1   --> A_1  D_1  S_1  
     e(  4 -  4) =    -10.80789  eV     1   --> B_2  D_4  S_4  
     e(  5 -  5) =    -10.79481  eV     1   --> A_2  D_2  S_2  
     e(  6 -  6) =    -10.78951  eV     1   --> B_1  D_3  S_3  
     e(  7 -  7) =     -7.95407  eV     1   --> A_1  D_1  S_1  
     e(  8 -  8) =     -7.66277  eV     1   --> B_2  D_4  S_4  
     e(  9 -  9) =     -6.49784  eV     1   --> A_1  D_1  S_1  
     e( 10 - 10) =     -5.95891  eV     1   --> A_2  D_2  S_2  
     e( 11 - 11) =     -5.83385  eV     1   --> B_2  D_4  S_4  
     e( 12 - 12) =     -5.74901  eV     1   --> A_1  D_1  S_1  
     e( 13 - 13) =      2.59252  eV     1   --> A_1  D_1  S_1  
     e( 14 - 14) =      4.75006  eV     1   --> B_1  D_3  S_3  
     e( 15 - 15) =      6.15815  eV     1   --> B_2  D_4  S_4  
     e( 16 - 16) =      7.09071  eV     1   --> A_1  D_1  S_1  
     e( 17 - 17) =      7.40411  eV     1   --> B_2  D_4  S_4  
     e( 18 - 18) =      7.62739  eV     1   --> A_2  D_2  S_2  
     e( 19 - 19) =      7.68073  eV     1   --> B_1  D_3  S_3  
     e( 20 - 20) =      8.20876  eV     1   --> A_1  D_1  S_1  
     e( 21 - 21) =      8.83565  eV     1   --> B_2  D_4  S_4  
     e( 22 - 22) =     15.15885  eV     1   --> A_1  D_1  S_1  
     e( 23 - 23) =     16.39042  eV     1   --> B_2  D_4  S_4  
     e( 24 - 24) =     16.65673  eV     1   --> A_1  D_1  S_1  
     e( 25 - 25) =     17.04805  eV     1   --> B_2  D_4  S_4  
     e( 26 - 26) =     17.31195  eV     1   --> A_2  D_2  S_2  
     e( 27 - 27) =     17.57796  eV     1   --> B_1  D_3  S_3  
     e( 28 - 28) =     18.25592  eV     1   --> B_2  D_4  S_4  
     e( 29 - 29) =     18.76092  eV     1   --> A_1  D_1  S_1  
     e( 30 - 30) =     19.41685  eV     1   --> B_2  D_4  S_4  
     e( 31 - 31) =     20.10113  eV     1   --> B_1  D_3  S_3  
     e( 32 - 32) =     20.90241  eV     1   --> A_1  D_1  S_1  

 **************************************************************************

 **************************************************************************

                    xk=(   0.35000,   0.50000,   0.00000  )

     Band symmetry, C_2v (mm2)  point group:

     e(  1 -  1) =    -24.03203  eV     1   --> B_2  D_4  S_4  
     e(  2 -  2) =    -11.47019  eV     1   --> A_1  D_1  S_1  
     e(  3 -  3) =    -11.10063  eV     1   --> A_1  D_1  S_1  
     e(  4 -  4) =    -10.80887  eV     1   --> B_2  D_4  S_4  
     e(  5 -  5) =    -10.79466  eV     1   --> A_2  D_2  S_2  
     e(  6 -  6) =    -10.79068  eV     1   --> B_1  D_3  S_3  
     e(  7 -  7) =     -7.91234  eV     1   --> A_1  D_1  S_1  
     e(  8 -  8) =     -7.67825  eV     1   --> B_2  D_4  S_4  
     e(  9 -  9) =     -6.59152  eV     1   --> A_1  D_1  S_1  
     e( 10 - 10) =     -5.95753  eV     1   --> A_2  D_2  S_2  
     e( 11 - 11) =     -5.82222  eV     1   --> B_2  D_4  S_4  
     e( 12 - 12) =     -5.75836  eV     1   --> A_1  D_1  S_1  
     e( 13 - 13) =      2.52619  eV     1   --> A_1  D_1  S_1  
     e( 14 - 14) =      4.78222  eV     1   --> B_1  D_3  S_3  
     e( 15 - 15) =      6.11778  eV     1   --> B_2  D_4  S_4  
     e( 16 - 16) =      7.20503  eV     1   --> A_1  D_1  S_1  
     e( 17 - 17) =      7.42460  eV     1   --> B_2  D_4  S_4  
     e( 18 - 18) =      7.60338  eV     1   -->   ?
     e( 19 - 19) =      7.64533  eV     1   -->   ?
     e( 20 - 20) =      8.24154  eV     1   --> A_1  D_1  S_1  
     e( 21 - 21) =      8.89383  eV     1   --> B_2  D_4  S_4  
     e( 22 - 22) =     15.31687  eV     1   --> A_1  D_1  S_1  
     e( 23 - 23) =     16.44982  eV     1   --> B_2  D_4  S_4  
     e( 24 - 24) =     16.62678  eV     1   --> A_1  D_1  S_1  
     e( 25 - 25) =     17.19259  eV     1   --> B_2  D_4  S_4  
     e( 26 - 26) =     17.38103  eV     1   --> A_2  D_2  S_2  
     e( 27 - 27) =     17.58238  eV     1   --> B_1  D_3  S_3  
     e( 28 - 28) =     18.22208  eV     1   --> B_2  D_4  S_4  
     e( 29 - 29) =     18.59915  eV     1   --> A_1  D_1  S_1  
     e( 30 - 30) =     19.34307  eV     1   --> B_2  D_4  S_4  
     e( 31 - 31) =     20.01503  eV     1   --> B_1  D_3  S_3  
     e( 32 - 32) =     20.88607  eV     1   --> A_1  D_1  S_1  

 **************************************************************************

 **************************************************************************

                    xk=(   0.37500,   0.50000,   0.00000  )

     Band symmetry, C_2v (mm2)  point group:

     e(  1 -  1) =    -24.03148  eV     1   --> B_2  D_4  S_4  
     e(  2 -  2) =    -11.46551  eV     1   --> A_1  D_1  S_1  
     e(  3 -  3) =    -11.07961  eV     1   --> A_1  D_1  S_1  
     e(  4 -  4) =    -10.80986  eV     1   --> B_2  D_4  S_4  
     e(  5 -  5) =    -10.79452  eV     1   --> A_2  D_2  S_2  
     e(  6 -  6) =    -10.79169  eV     1   --> B_1  D_3  S_3  
     e(  7 -  7) =     -7.86959  eV     1   --> A_1  D_1  S_1  
     e(  8 -  8) =     -7.69190  eV     1   --> B_2  D_4  S_4  
     e(  9 -  9) =     -6.68084  eV     1   --> A_1  D_1  S_1  
     e( 10 - 10) =     -5.95629  eV     1   --> A_2  D_2  S_2  
     e( 11 - 11) =     -5.81198  eV     1   --> B_2  D_4  S_4  
     e( 12 - 12) =     -5.76673  eV     1   --> A_1  D_1  S_1  
     e( 13 - 13) =      2.47056  eV     1   --> A_1  D_1  S_1  
     e( 14 - 14) =      4.81161  eV     1   --> B_1  D_3  S_3  
     e( 15 - 15) =      6.08233  eV     1   --> B_2  D_4  S_4  
     e( 16 - 16) =      7.29867  eV     1   --> A_1  D_1  S_1  
     e( 17 - 17) =      7.44384  eV     1   --> B_2  D_4  S_4  
     e( 18 - 18) =      7.58218  eV     1   -->   ?
     e( 19 - 19) =      7.61303  eV     1   -->   ?
     e( 20 - 20) =      8.27498  eV     1   --> A_1  D_1  S_1  
     e( 21 - 21) =      8.94447  eV     1   --> B_2  D_4  S_4  
     e( 22 - 22) =     15.46933  eV     1   --> A_1  D_1  S_1  
     e( 23 - 23) =     16.50607  eV     1   --> B_2  D_4  S_4  
     e( 24 - 24) =     16.62195  eV     1   --> A_1  D_1  S_1  
     e( 25 - 25) =     17.31649  eV     1   --> B_2  D_4  S_4  
     e( 26 - 26) =     17.44298  eV     1   --> A_2  D_2  S_2  
     e( 27 - 27) =     17.58641  eV     1   --> B_1  D_3  S_3  
     e( 28 - 28) =     18.21099  eV     1   --> B_2  D_4  S_4  
     e( 29 - 29) =     18.41043  eV     1   --> A_1  D_1  S_1  
     e( 30 - 30) =     19.28696  eV     1   --> B_2  D_4  S_4  
     e( 31 - 31) =     19.94217  eV     1   --> B_1  D_3  S_3  
     e( 32 - 32) =     20.88716  eV     1   --> A_1  D_1  S_1  

 **************************************************************************

 **************************************************************************

                    xk=(   0.40000,   0.50000,   0.00000  )

     Band symmetry, C_2v (mm2)  point group:

     e(  1 -  1) =    -24.03100  eV     1   --> B_2  D_4  S_4  
     e(  2 -  2) =    -11.46178  eV     1   --> A_1  D_1  S_1  
     e(  3 -  3) =    -11.06113  eV     1   --> A_1  D_1  S_1  
     e(  4 -  4) =    -10.81049  eV     1   --> B_2  D_4  S_4  
     e(  5 -  5) =    -10.79436  eV     1   --> A_2  D_2  S_2  
     e(  6 -  6) =    -10.79242  eV     1   --> B_1  D_3  S_3  
     e(  7 -  7) =     -7.82736  eV     1   --> A_1  D_1  S_1  
     e(  8 -  8) =     -7.70345  eV     1   --> B_2  D_4  S_4  
     e(  9 -  9) =     -6.76302  eV     1   --> A_1  D_1  S_1  
     e( 10 - 10) =     -5.95523  eV     1   --> A_2  D_2  S_2  
     e( 11 - 11) =     -5.80333  eV     1   --> B_2  D_4  S_4  
     e( 12 - 12) =     -5.77389  eV     1   --> A_1  D_1  S_1  
     e( 13 - 13) =      2.42543  eV     1   --> A_1  D_1  S_1  
     e( 14 - 14) =      4.83727  eV     1   --> B_1  D_3  S_3  
[...]
     e( 25 - 25) =     17.19238  eV     1   --> B_2  G_4 D_2'  
     e( 26 - 26) =     17.44476  eV     1   --> A_1  G_1 D_1   
     e( 27 - 27) =     18.20055  eV     1   --> A_2  G_2 D_1'  
     e( 28 - 28) =     18.49535  eV     1   --> B_2  G_4 D_2'  
     e( 29 - 30) =     19.13862  eV     2   --> E    G_5 D_5   
     e( 31 - 31) =     19.91104  eV     1   --> A_1  G_1 D_1   
     e( 32 - 32) =     21.23817  eV     1   -->   ?

 **************************************************************************

 **************************************************************************

                    xk=(   0.50000,   0.50000,   0.27500  )

     Band symmetry, C_4v (4mm)  point group:

     e(  1 -  1) =    -24.02508  eV     1   --> B_2  G_4 D_2'  
     e(  2 -  2) =    -11.22166  eV     1   --> A_1  G_1 D_1   
     e(  3 -  3) =    -11.02476  eV     1   --> B_1  G_3 D_2   
     e(  4 -  4) =    -10.81494  eV     1   --> B_2  G_4 D_2'  
     e(  5 -  6) =    -10.80772  eV     2   --> E    G_5 D_5   
     e(  7 -  8) =     -7.57617  eV     2   --> E    G_5 D_5   
     e(  9 -  9) =     -7.21179  eV     1   --> A_1  G_1 D_1   
     e( 10 - 10) =     -6.05897  eV     1   --> B_2  G_4 D_2'  
     e( 11 - 12) =     -5.97346  eV     2   --> E    G_5 D_5   
     e( 13 - 13) =      0.85636  eV     1   --> A_1  G_1 D_1   
     e( 14 - 14) =      6.40408  eV     1   --> B_2  G_4 D_2'  
     e( 15 - 16) =      6.85866  eV     2   --> E    G_5 D_5   
     e( 17 - 17) =      7.12285  eV     1   --> A_1  G_1 D_1   
     e( 18 - 18) =      8.38592  eV     1   --> B_1  G_3 D_2   
     e( 19 - 20) =      8.60551  eV     2   --> E    G_5 D_5   
     e( 21 - 21) =      9.10341  eV     1   --> A_2  G_2 D_1'  
     e( 22 - 22) =     15.11291  eV     1   --> A_1  G_1 D_1   
     e( 23 - 24) =     15.36059  eV     2   --> E    G_5 D_5   
     e( 25 - 25) =     17.29314  eV     1   --> B_2  G_4 D_2'  
     e( 26 - 26) =     17.53706  eV     1   --> A_1  G_1 D_1   
     e( 27 - 27) =     18.17015  eV     1   --> A_2  G_2 D_1'  
     e( 28 - 28) =     18.39253  eV     1   --> B_2  G_4 D_2'  
     e( 29 - 30) =     19.22160  eV     2   --> E    G_5 D_5   
     e( 31 - 31) =     19.89619  eV     1   --> A_1  G_1 D_1   
     e( 32 - 32) =     21.28802  eV     1   -->   ?

 **************************************************************************

 **************************************************************************

                    xk=(   0.50000,   0.50000,   0.30000  )

     Band symmetry, C_4v (4mm)  point group:

     e(  1 -  1) =    -24.02443  eV     1   --> B_2  G_4 D_2'  
     e(  2 -  2) =    -11.18822  eV     1   --> A_1  G_1 D_1   
     e(  3 -  3) =    -11.02484  eV     1   --> B_1  G_3 D_2   
     e(  4 -  4) =    -10.81565  eV     1   --> B_2  G_4 D_2'  
     e(  5 -  6) =    -10.80980  eV     2   --> E    G_5 D_5   
     e(  7 -  8) =     -7.55406  eV     2   --> E    G_5 D_5   
     e(  9 -  9) =     -7.25129  eV     1   --> A_1  G_1 D_1   
     e( 10 - 10) =     -6.07266  eV     1   --> B_2  G_4 D_2'  
     e( 11 - 12) =     -6.00051  eV     2   --> E    G_5 D_5   
     e( 13 - 13) =      0.73087  eV     1   --> A_1  G_1 D_1   
     e( 14 - 14) =      6.45906  eV     1   --> B_2  G_4 D_2'  
     e( 15 - 16) =      6.82694  eV     2   --> E    G_5 D_5   
     e( 17 - 17) =      7.35845  eV     1   --> A_1  G_1 D_1   
     e( 18 - 18) =      8.38698  eV     1   --> B_1  G_3 D_2   
     e( 19 - 20) =      8.70135  eV     2   --> E    G_5 D_5   
     e( 21 - 21) =      9.10852  eV     1   --> A_2  G_2 D_1'  
     e( 22 - 22) =     15.01222  eV     1   --> A_1  G_1 D_1   
     e( 23 - 24) =     15.20129  eV     2   --> E    G_5 D_5   
     e( 25 - 25) =     17.39826  eV     1   --> B_2  G_4 D_2'  
     e( 26 - 26) =     17.63690  eV     1   --> A_1  G_1 D_1   
     e( 27 - 27) =     18.14069  eV     1   --> A_2  G_2 D_1'  
     e( 28 - 28) =     18.29450  eV     1   --> B_2  G_4 D_2'  
     e( 29 - 30) =     19.28928  eV     2   --> E    G_5 D_5   
     e( 31 - 31) =     19.86908  eV     1   --> A_1  G_1 D_1   
     e( 32 - 32) =     21.33808  eV     1   -->   ?

 **************************************************************************

 **************************************************************************

                    xk=(   0.50000,   0.50000,   0.32500  )

     Band symmetry, C_4v (4mm)  point group:

     e(  1 -  1) =    -24.02380  eV     1   --> B_2  G_4 D_2'  
     e(  2 -  2) =    -11.15542  eV     1   --> A_1  G_1 D_1   
     e(  3 -  3) =    -11.02478  eV     1   --> B_1  G_3 D_2   
     e(  4 -  4) =    -10.81585  eV     1   --> B_2  G_4 D_2'  
     e(  5 -  6) =    -10.81144  eV     2   --> E    G_5 D_5   
     e(  7 -  8) =     -7.53235  eV     2   --> E    G_5 D_5   
     e(  9 -  9) =     -7.28969  eV     1   --> A_1  G_1 D_1   
     e( 10 - 10) =     -6.08558  eV     1   --> B_2  G_4 D_2'  
     e( 11 - 12) =     -6.02689  eV     2   --> E    G_5 D_5   
     e( 13 - 13) =      0.61877  eV     1   --> A_1  G_1 D_1   
     e( 14 - 14) =      6.51173  eV     1   --> B_2  G_4 D_2'  
     e( 15 - 16) =      6.79946  eV     2   --> E    G_5 D_5   
     e( 17 - 17) =      7.57848  eV     1   --> A_1  G_1 D_1   
     e( 18 - 18) =      8.38808  eV     1   --> B_1  G_3 D_2   
     e( 19 - 20) =      8.79160  eV     2   --> E    G_5 D_5   
     e( 21 - 21) =      9.11347  eV     1   --> A_2  G_2 D_1'  
     e( 22 - 22) =     14.91506  eV     1   --> A_1  G_1 D_1   
     e( 23 - 24) =     15.05490  eV     2   --> E    G_5 D_5   
     e( 25 - 25) =     17.50554  eV     1   --> B_2  G_4 D_2'  
     e( 26 - 26) =     17.74287  eV     1   --> A_1  G_1 D_1   
     e( 27 - 27) =     18.11287  eV     1   --> A_2  G_2 D_1'  
     e( 28 - 28) =     18.20323  eV     1   --> B_2  G_4 D_2'  
     e( 29 - 30) =     19.34288  eV     2   --> E    G_5 D_5   
     e( 31 - 31) =     19.82964  eV     1   --> A_1  G_1 D_1   
     e( 32 - 32) =     21.38712  eV     1   -->   ?

 **************************************************************************

 **************************************************************************

                    xk=(   0.50000,   0.50000,   0.35000  )

     Band symmetry, C_4v (4mm)  point group:

     e(  1 -  1) =    -24.02321  eV     1   --> B_2  G_4 D_2'  
     e(  2 -  2) =    -11.12430  eV     1   --> A_1  G_1 D_1   
     e(  3 -  3) =    -11.02486  eV     1   --> B_1  G_3 D_2   
     e(  4 -  4) =    -10.81629  eV     1   --> B_2  G_4 D_2'  
     e(  5 -  6) =    -10.81292  eV     2   --> E    G_5 D_5   
     e(  7 -  8) =     -7.51165  eV     2   --> E    G_5 D_5   
     e(  9 -  9) =     -7.32593  eV     1   --> A_1  G_1 D_1   
     e( 10 - 10) =     -6.09743  eV     1   --> B_2  G_4 D_2'  
     e( 11 - 12) =     -6.05190  eV     2   --> E    G_5 D_5   
     e( 13 - 13) =      0.52065  eV     1   --> A_1  G_1 D_1   
     e( 14 - 14) =      6.56057  eV     1   --> B_2  G_4 D_2'  
     e( 15 - 16) =      6.77602  eV     2   --> E    G_5 D_5   
     e( 17 - 17) =      7.77923  eV     1   --> A_1  G_1 D_1   
     e( 18 - 18) =      8.38907  eV     1   --> B_1  G_3 D_2   
     e( 19 - 20) =      8.87458  eV     2   --> E    G_5 D_5   
     e( 21 - 21) =      9.11805  eV     1   --> A_2  G_2 D_1'  
     e( 22 - 22) =     14.82379  eV     1   --> A_1  G_1 D_1   
     e( 23 - 24) =     14.92309  eV     2   --> E    G_5 D_5   
     e( 25 - 25) =     17.61209  eV     1   --> B_2  G_4 D_2'  
     e( 26 - 26) =     17.85285  eV     1   --> A_1  G_1 D_1   
     e( 27 - 27) =     18.08734  eV     1   -->   ?
     e( 28 - 28) =     18.12053  eV     1   -->   ?
     e( 29 - 30) =     19.38404  eV     2   --> E    G_5 D_5   
     e( 31 - 31) =     19.77865  eV     1   --> A_1  G_1 D_1   
     e( 32 - 32) =     21.43373  eV     1   -->   ?

 **************************************************************************

 **************************************************************************

                    xk=(   0.50000,   0.50000,   0.37500  )

     Band symmetry, C_4v (4mm)  point group:

     e(  1 -  1) =    -24.02269  eV     1   --> B_2  G_4 D_2'  
     e(  2 -  2) =    -11.09621  eV     1   --> A_1  G_1 D_1   
     e(  3 -  3) =    -11.02483  eV     1   --> B_1  G_3 D_2   
     e(  4 -  4) =    -10.81663  eV     1   --> B_2  G_4 D_2'  
     e(  5 -  6) =    -10.81429  eV     2   --> E    G_5 D_5   
     e(  7 -  8) =     -7.49260  eV     2   --> E    G_5 D_5   
     e(  9 -  9) =     -7.35898  eV     1   --> A_1  G_1 D_1   
     e( 10 - 10) =     -6.10798  eV     1   --> B_2  G_4 D_2'  
     e( 11 - 12) =     -6.07480  eV     2   --> E    G_5 D_5   
     e( 13 - 13) =      0.43700  eV     1   --> A_1  G_1 D_1   
     e( 14 - 14) =      6.60438  eV     1   --> B_2  G_4 D_2'  
     e( 15 - 16) =      6.75643  eV     2   --> E    G_5 D_5   
     e( 17 - 17) =      7.95705  eV     1   --> A_1  G_1 D_1   
     e( 18 - 18) =      8.38998  eV     1   --> B_1  G_3 D_2   
     e( 19 - 20) =      8.94865  eV     2   --> E    G_5 D_5   
     e( 21 - 21) =      9.12214  eV     1   --> A_2  G_2 D_1'  
     e( 22 - 22) =     14.74088  eV     1   --> A_1  G_1 D_1   
     e( 23 - 24) =     14.80762  eV     2   --> E    G_5 D_5   
     e( 25 - 25) =     17.71429  eV     1   --> B_2  G_4 D_2'  
     e( 26 - 26) =     17.96393  eV     1   --> A_1  G_1 D_1   
     e( 27 - 27) =     18.04806  eV     1   --> B_2  G_4 D_2'  
     e( 28 - 28) =     18.06467  eV     1   --> A_2  G_2 D_1'  
     e( 29 - 30) =     19.41459  eV     2   --> E    G_5 D_5   
     e( 31 - 31) =     19.71813  eV     1   --> A_1  G_1 D_1   
     e( 32 - 32) =     21.47640  eV     1   -->   ?

 **************************************************************************

 **************************************************************************

                    xk=(   0.50000,   0.50000,   0.40000  )

     Band symmetry, C_4v (4mm)  point group:

     e(  1 -  1) =    -24.02225  eV     1   --> B_2  G_4 D_2'  
     e(  2 -  2) =    -11.07176  eV     1   --> A_1  G_1 D_1   
     e(  3 -  3) =    -11.02481  eV     1   --> B_1  G_3 D_2   
     e(  4 -  4) =    -10.81697  eV     1   --> B_2  G_4 D_2'  
     e(  5 -  6) =    -10.81551  eV     2   --> E    G_5 D_5   
     e(  7 -  8) =     -7.47584  eV     2   --> E    G_5 D_5   
     e(  9 -  9) =     -7.38776  eV     1   --> A_1  G_1 D_1   
     e( 10 - 10) =     -6.11696  eV     1   --> B_2  G_4 D_2'  
     e( 11 - 12) =     -6.09484  eV     2   --> E    G_5 D_5   
     e( 13 - 13) =      0.36817  eV     1   --> A_1  G_1 D_1   
     e( 14 - 14) =      6.64197  eV     1   --> B_2  G_4 D_2'  
     e( 15 - 16) =      6.74057  eV     2   --> E    G_5 D_5   
     e( 17 - 17) =      8.10847  eV     1   --> A_1  G_1 D_1   
     e( 18 - 18) =      8.39076  eV     1   --> B_1  G_3 D_2   
     e( 19 - 20) =      9.01215  eV     2   --> E    G_5 D_5   
     e( 21 - 21) =      9.12564  eV     1   --> A_2  G_2 D_1'  
     e( 22 - 22) =     14.66875  eV     1   --> A_1  G_1 D_1   
     e( 23 - 24) =     14.71019  eV     2   --> E    G_5 D_5   
     e( 25 - 25) =     17.80754  eV     1   --> B_2  G_4 D_2'  
     e( 26 - 26) =     17.98753  eV     1   -->   ?
     e( 27 - 27) =     18.04538  eV     1   -->   ?
     e( 28 - 28) =     18.07201  eV     1   --> A_1  G_1 D_1   
     e( 29 - 30) =     19.43644  eV     2   --> E    G_5 D_5   
     e( 31 - 31) =     19.65164  eV     1   --> A_1  G_1 D_1   
     e( 32 - 32) =     21.51366  eV     1   -->   ?

 **************************************************************************

 **************************************************************************

                    xk=(   0.50000,   0.50000,   0.42500  )

     Band symmetry, C_4v (4mm)  point group:

     e(  1 -  1) =    -24.02188  eV     1   --> B_2  G_4 D_2'  
     e(  2 -  2) =    -11.05176  eV     1   --> A_1  G_1 D_1   
     e(  3 -  3) =    -11.02456  eV     1   --> B_1  G_3 D_2   
     e(  4 -  4) =    -10.81690  eV     1   --> B_2  G_4 D_2'  
     e(  5 -  6) =    -10.81617  eV     2   --> E    G_5 D_5   
     e(  7 -  8) =     -7.46201  eV     2   --> E    G_5 D_5   
     e(  9 -  9) =     -7.41128  eV     1   --> A_1  G_1 D_1   
     e( 10 - 10) =     -6.12415  eV     1   --> B_2  G_4 D_2'  
     e( 11 - 12) =     -6.11128  eV     2   --> E    G_5 D_5   
     e( 13 - 13) =      0.31444  eV     1   --> A_1  G_1 D_1   
     e( 14 - 14) =      6.67239  eV     1   --> B_2  G_4 D_2'  
     e( 15 - 16) =      6.72843  eV     2   --> E    G_5 D_5   
     e( 17 - 17) =      8.23027  eV     1   --> A_1  G_1 D_1   
     e( 18 - 18) =      8.39149  eV     1   --> B_1  G_3 D_2   
     e( 19 - 20) =      9.06356  eV     2   --> E    G_5 D_5   
     e( 21 - 21) =      9.12854  eV     1   --> A_2  G_2 D_1'  
     e( 22 - 22) =     14.60974  eV     1   -->   ?
     e( 23 - 24) =     14.63243  eV     2   -->   ?
     e( 25 - 25) =     17.88378  eV     1   --> B_2  G_4 D_2'  
     e( 26 - 26) =     17.94329  eV     1   --> B_2  G_4 D_2'  
     e( 27 - 27) =     18.02997  eV     1   --> A_2  G_2 D_1'  
     e( 28 - 28) =     18.17131  eV     1   --> A_1  G_1 D_1   
     e( 29 - 30) =     19.45138  eV     2   --> E    G_5 D_5   
     e( 31 - 31) =     19.58473  eV     1   --> A_1  G_1 D_1   
     e( 32 - 32) =     21.54420  eV     1   -->   ?

 **************************************************************************

 **************************************************************************

                    xk=(   0.50000,   0.50000,   0.45000  )

     Band symmetry, C_4v (4mm)  point group:

     e(  1 -  1) =    -24.02161  eV     1   --> B_2  G_4 D_2'  
     e(  2 -  2) =    -11.03705  eV     1   --> A_1  G_1 D_1   
     e(  3 -  3) =    -11.02450  eV     1   --> B_1  G_3 D_2   
     e(  4 -  4) =    -10.81698  eV     1   --> B_2  G_4 D_2'  
     e(  5 -  6) =    -10.81657  eV     2   --> E    G_5 D_5   
     e(  9 -  9) =     -7.42873  eV     1   --> A_1  G_1 D_1   
     e( 10 - 10) =     -6.12940  eV     1   --> B_2  G_4 D_2'  
     e( 11 - 12) =     -6.12354  eV     2   --> E    G_5 D_5   
     e( 13 - 13) =      0.27598  eV     1   --> A_1  G_1 D_1   
     e( 17 - 17) =      8.31952  eV     1   --> A_1  G_1 D_1   
     e( 18 - 18) =      8.39197  eV     1   --> B_1  G_3 D_2   
     e( 22 - 22) =     14.56590  eV     1   -->   ?
     e( 23 - 24) =     14.57574  eV     2   -->   ?
     e( 25 - 25) =     17.89479  eV     1   --> B_2  G_4 D_2'  
     e( 26 - 26) =     17.95940  eV     1   --> B_2  G_4 D_2'  
     e( 27 - 27) =     18.01870  eV     1   --> A_2  G_2 D_1'  
     e( 28 - 28) =     18.25386  eV     1   --> A_1  G_1 D_1   
     e( 29 - 30) =     19.46090  eV     2   -->   ?
     e( 31 - 31) =     19.52529  eV     1   -->   ?
     e( 32 - 32) =     21.56689  eV     1   -->   ?

 **************************************************************************

 **************************************************************************

                    xk=(   0.50000,   0.50000,   0.47500  )

     Band symmetry, C_4v (4mm)  point group:

     e(  1 -  1) =    -24.02145  eV     1   --> B_2  G_4 D_2'  
     e(  2 -  2) =    -11.02757  eV     1   --> A_1  G_1 D_1   
     e(  3 -  3) =    -11.02449  eV     1   --> B_1  G_3 D_2   
     e(  4 -  4) =    -10.81708  eV     1   -->   ?
     e(  5 -  6) =    -10.81698  eV     2   -->   ?
     e(  7 -  8) =     -7.44526  eV     2   -->   ?
     e(  9 -  9) =     -7.43948  eV     1   -->   ?
     e( 10 - 10) =     -6.13260  eV     1   --> B_2  G_4 D_2'  
     e( 11 - 12) =     -6.13111  eV     2   --> E    G_5 D_5   
     e( 13 - 13) =      0.25286  eV     1   --> A_1  G_1 D_1   
     e( 14 - 14) =      6.70839  eV     1   -->   ?
     e( 15 - 16) =      6.71469  eV     2   -->   ?
     e( 17 - 17) =      8.37402  eV     1   -->   ?
     e( 18 - 18) =      8.39225  eV     1   -->   ?
     e( 19 - 20) =      9.12455  eV     2   -->   ?
     e( 21 - 21) =      9.13188  eV     1   -->   ?
     e( 22 - 22) =     14.53895  eV     1   -->   ?
     e( 23 - 24) =     14.54117  eV     2   -->   ?
     e( 25 - 25) =     17.87620  eV     1   --> B_2  G_4 D_2'  
     e( 26 - 26) =     17.99628  eV     1   -->   ?
     e( 27 - 27) =     18.01181  eV     1   -->   ?
     e( 28 - 28) =     18.30979  eV     1   --> A_1  G_1 D_1   
     e( 29 - 30) =     19.46613  eV     2   -->   ?
     e( 31 - 31) =     19.48314  eV     1   -->   ?
     e( 32 - 32) =     21.58087  eV     1   -->   ?

 **************************************************************************

 **************************************************************************

                    xk=(   0.50000,   0.50000,   0.50000  )

     point group O_h (m-3m) 
     there are 10 classes
     the character table:

       E     8C3   3C2   6C4   6C2'  i     8S6   3s_h  6S4   6s_d 
A_1g   1.00  1.00  1.00  1.00  1.00  1.00  1.00  1.00  1.00  1.00
A_2g   1.00  1.00  1.00 -1.00 -1.00  1.00  1.00  1.00 -1.00 -1.00
E_g    2.00 -1.00  2.00  0.00  0.00  2.00 -1.00  2.00  0.00  0.00
T_1g   3.00  0.00 -1.00  1.00 -1.00  3.00  0.00 -1.00  1.00 -1.00
T_2g   3.00  0.00 -1.00 -1.00  1.00  3.00  0.00 -1.00 -1.00  1.00
A_1u   1.00  1.00  1.00  1.00  1.00 -1.00 -1.00 -1.00 -1.00 -1.00
A_2u   1.00  1.00  1.00 -1.00 -1.00 -1.00 -1.00 -1.00  1.00  1.00
E_u    2.00 -1.00  2.00  0.00  0.00 -2.00  1.00 -2.00  0.00  0.00
T_1u   3.00  0.00 -1.00  1.00 -1.00 -3.00  0.00  1.00 -1.00  1.00
T_2u   3.00  0.00 -1.00 -1.00  1.00 -3.00  0.00  1.00  1.00 -1.00

     the symmetry operations in each class and the name of the first element:

     E        1
                                                                 
     8C3     17   19   20   18   24   21   22   23
                                                                 
     3C2      2    4    3
                                                                 
     6C4      7    8   15   16   12   11
                                                                 
     6C2'     5    6   14   13   10    9
                                                                 
     i       25
                                                                 
     8S6     41   43   44   42   48   45   46   47
                                                                 
     3s_h    26   28   27
                                                                 
     6S4     31   32   39   40   36   35
                                                                 
     6s_d    29   30   38   37   34   33
                                                                 

     Band symmetry, O_h (m-3m)  point group:

     e(  1 -  1) =    -24.02140  eV     1   --> A_2u G_2'  G_2-
     e(  2 -  3) =    -11.02449  eV     2   --> E_g  G_12  G_3+
     e(  4 -  6) =    -10.81712  eV     3   --> T_2g G_25' G_5+
     e(  7 -  9) =     -7.44310  eV     3   --> T_1u G_15  G_4-
     e( 10 - 12) =     -6.13367  eV     3   --> T_2g G_25' G_5+
     e( 13 - 13) =      0.24514  eV     1   --> A_1g G_1   G_1+
     e( 14 - 16) =      6.71298  eV     3   --> T_2g G_25' G_5+
     e( 17 - 18) =      8.39235  eV     2   --> E_g  G_12  G_3+
     e( 19 - 21) =      9.13235  eV     3   --> T_1g G_15' G_4+
     e( 22 - 24) =     14.52969  eV     3   --> T_1u G_15  G_4-
     e( 25 - 25) =     17.86939  eV     1   --> A_2u G_2'  G_2-
     e( 26 - 27) =     18.00952  eV     2   --> E_u  G_12' G_3-
     e( 28 - 28) =     18.32978  eV     1   --> A_1g G_1   G_1+
     e( 29 - 31) =     19.46779  eV     3   --> T_1u G_15  G_4-
     e( 32 - 32) =     21.58558  eV     1   -->   ?

 **************************************************************************
 
     BANDS        :    44.87s CPU        45.34s WALL

 
   This run was terminated on:  19: 9: 2  19Jun2019            

=------------------------------------------------------------------------------=
   JOB DONE.
=------------------------------------------------------------------------------=
