
     Program PWSCF v.6.3MaX starts on 23Jun2019 at  6:49:41 

     This program is part of the open-source Quantum ESPRESSO suite
     for quantum simulation of materials; please cite
         "P. Giannozzi et al., J. Phys.:Condens. Matter 21 395502 (2009);
         "P. Giannozzi et al., J. Phys.:Condens. Matter 29 465901 (2017);
          URL http://www.quantum-espresso.org", 
     in publications or presentations arising from this work. More details at
     http://www.quantum-espresso.org/quote

     Serial version
     Waiting for input...
     Reading input from standard input
Warning: card &IONS ignored
Warning: card                 ION_DYNAMICS = 'BFGS' ignored
Warning: card / ignored
Warning: card &CELL ignored
Warning: card                        PRESS = 0.0D0 ignored
Warning: card               PRESS_CONV_THR = 0.1D0 ignored
Warning: card / ignored

     Current dimensions of program PWSCF are:
     Max number of different atomic species (ntypx) = 10
     Max number of k-points (npk) =  40000
     Max angular momentum in pseudopotentials (lmaxx) =  3

     Atomic positions and unit cell read from directory:
     ./SrSnO3/pwscf.save/

               file Sn.pbe-dn-rrkjus_psl.1.0.0.UPF: wavefunction(s)  5S 4D renormalized

     G-vector sticks info
     --------------------
     sticks:   dense  smooth     PW     G-vecs:    dense   smooth      PW
     Sum        1153    1153    349                29423    29423    4801


     Title: 
     SrSnO3                                                                     


     bravais-lattice index     =            0
     lattice parameter (alat)  =       7.7760  a.u.
     unit-cell volume          =     470.1771 (a.u.)^3
     number of atoms/cell      =            5
     number of atomic types    =            3
     number of electrons       =        42.00
     number of Kohn-Sham states=           32
     kinetic-energy cutoff     =      60.0000  Ry
     charge density cutoff     =     240.0000  Ry
     Exchange-correlation      = PBE ( 1  4  3  4 0 0)

     celldm(1)=   7.775957  celldm(2)=   0.000000  celldm(3)=   0.000000
     celldm(4)=   0.000000  celldm(5)=   0.000000  celldm(6)=   0.000000

     crystal axes: (cart. coord. in units of alat)
               a(1) = (   1.000000   0.000000   0.000000 )  
               a(2) = (   0.000000   1.000000   0.000000 )  
               a(3) = (   0.000000   0.000000   1.000000 )  

     reciprocal axes: (cart. coord. in units 2 pi/alat)
               b(1) = (  1.000000  0.000000  0.000000 )  
               b(2) = (  0.000000  1.000000  0.000000 )  
               b(3) = (  0.000000  0.000000  1.000000 )  


     PseudoPot. # 1 for Sr read from file:
     ../../pseudo/Sr.pbe-spn-rrkjus_psl.1.0.0.UPF
     MD5 check sum: b01d2975708dfe0128124e08a9218b05
     Pseudo is Ultrasoft + core correction, Zval = 10.0
     Generated using "atomic" code by A. Dal Corso v.6.3MaX
     Using radial grid of 1221 points,  6 beta functions with: 
                l(1) =   0
                l(2) =   0
                l(3) =   1
                l(4) =   1
                l(5) =   2
                l(6) =   2
     Q(r) pseudized with 0 coefficients 


     PseudoPot. # 2 for Sn read from file:
     ../../pseudo/Sn.pbe-dn-rrkjus_psl.1.0.0.UPF
     MD5 check sum: 3003b82f74bfde8c3712ca6ff28e1dc2
     Pseudo is Ultrasoft + core correction, Zval = 14.0
     Generated using "atomic" code by A. Dal Corso v.6.3MaX
     Using radial grid of 1243 points,  6 beta functions with: 
                l(1) =   0
                l(2) =   0
                l(3) =   1
                l(4) =   1
                l(5) =   2
                l(6) =   2
     Q(r) pseudized with 0 coefficients 


     PseudoPot. # 3 for O  read from file:
     ../../pseudo/O.pbe-n-rrkjus_psl.1.0.0.UPF
     MD5 check sum: 0ab64894fae4206cf37bef81a8e22c07
     Pseudo is Ultrasoft + core correction, Zval =  6.0
     Generated using "atomic" code by A. Dal Corso v.6.3MaX
     Using radial grid of 1095 points,  4 beta functions with: 
                l(1) =   0
                l(2) =   0
                l(3) =   1
                l(4) =   1
     Q(r) pseudized with 0 coefficients 


     atomic species   valence    mass     pseudopotential
        Sr            10.00    87.62000     Sr( 1.00)
        Sn            14.00   118.71000     Sn( 1.00)
        O              6.00    15.99940     O ( 1.00)

     48 Sym. Ops., with inversion, found


                                    s                        frac. trans.

      isym =  1     identity                                     

 cryst.   s( 1) = (     1          0          0      )
                  (     0          1          0      )
                  (     0          0          1      )

 cart.    s( 1) = (  1.0000000  0.0000000  0.0000000 )
                  (  0.0000000  1.0000000  0.0000000 )
                  (  0.0000000  0.0000000  1.0000000 )


      isym =  2     180 deg rotation - cart. axis [0,0,1]        

 cryst.   s( 2) = (    -1          0          0      )
                  (     0         -1          0      )
                  (     0          0          1      )

 cart.    s( 2) = ( -1.0000000  0.0000000  0.0000000 )
                  (  0.0000000 -1.0000000  0.0000000 )
                  (  0.0000000  0.0000000  1.0000000 )


      isym =  3     180 deg rotation - cart. axis [0,1,0]        

 cryst.   s( 3) = (    -1          0          0      )
                  (     0          1          0      )
                  (     0          0         -1      )

 cart.    s( 3) = ( -1.0000000  0.0000000  0.0000000 )
                  (  0.0000000  1.0000000  0.0000000 )
                  (  0.0000000  0.0000000 -1.0000000 )


      isym =  4     180 deg rotation - cart. axis [1,0,0]        

 cryst.   s( 4) = (     1          0          0      )
                  (     0         -1          0      )
                  (     0          0         -1      )

 cart.    s( 4) = (  1.0000000  0.0000000  0.0000000 )
                  (  0.0000000 -1.0000000  0.0000000 )
                  (  0.0000000  0.0000000 -1.0000000 )


      isym =  5     180 deg rotation - cart. axis [1,1,0]        

 cryst.   s( 5) = (     0          1          0      )
                  (     1          0          0      )
                  (     0          0         -1      )

 cart.    s( 5) = (  0.0000000  1.0000000  0.0000000 )
                  (  1.0000000  0.0000000  0.0000000 )
                  (  0.0000000  0.0000000 -1.0000000 )


      isym =  6     180 deg rotation - cart. axis [1,-1,0]       

 cryst.   s( 6) = (     0         -1          0      )
                  (    -1          0          0      )
                  (     0          0         -1      )

 cart.    s( 6) = (  0.0000000 -1.0000000  0.0000000 )
                  ( -1.0000000  0.0000000  0.0000000 )
                  (  0.0000000  0.0000000 -1.0000000 )


      isym =  7      90 deg rotation - cart. axis [0,0,-1]       

 cryst.   s( 7) = (     0         -1          0      )
                  (     1          0          0      )
                  (     0          0          1      )

 cart.    s( 7) = (  0.0000000  1.0000000  0.0000000 )
                  ( -1.0000000  0.0000000  0.0000000 )
                  (  0.0000000  0.0000000  1.0000000 )


      isym =  8      90 deg rotation - cart. axis [0,0,1]        

 cryst.   s( 8) = (     0          1          0      )
                  (    -1          0          0      )
                  (     0          0          1      )

 cart.    s( 8) = (  0.0000000 -1.0000000  0.0000000 )
                  (  1.0000000  0.0000000  0.0000000 )
                  (  0.0000000  0.0000000  1.0000000 )


      isym =  9     180 deg rotation - cart. axis [1,0,1]        

 cryst.   s( 9) = (     0          0          1      )
                  (     0         -1          0      )
                  (     1          0          0      )

 cart.    s( 9) = (  0.0000000  0.0000000  1.0000000 )
                  (  0.0000000 -1.0000000  0.0000000 )
                  (  1.0000000  0.0000000  0.0000000 )


      isym = 10     180 deg rotation - cart. axis [-1,0,1]       

 cryst.   s(10) = (     0          0         -1      )
                  (     0         -1          0      )
                  (    -1          0          0      )

 cart.    s(10) = (  0.0000000  0.0000000 -1.0000000 )
                  (  0.0000000 -1.0000000  0.0000000 )
                  ( -1.0000000  0.0000000  0.0000000 )


      isym = 11      90 deg rotation - cart. axis [0,1,0]        

 cryst.   s(11) = (     0          0         -1      )
                  (     0          1          0      )
                  (     1          0          0      )

 cart.    s(11) = (  0.0000000  0.0000000  1.0000000 )
                  (  0.0000000  1.0000000  0.0000000 )
                  ( -1.0000000  0.0000000  0.0000000 )


      isym = 12      90 deg rotation - cart. axis [0,-1,0]       

 cryst.   s(12) = (     0          0          1      )
                  (     0          1          0      )
                  (    -1          0          0      )

 cart.    s(12) = (  0.0000000  0.0000000 -1.0000000 )
                  (  0.0000000  1.0000000  0.0000000 )
                  (  1.0000000  0.0000000  0.0000000 )


      isym = 13     180 deg rotation - cart. axis [0,1,1]        

 cryst.   s(13) = (    -1          0          0      )
                  (     0          0          1      )
                  (     0          1          0      )

 cart.    s(13) = ( -1.0000000  0.0000000  0.0000000 )
                  (  0.0000000  0.0000000  1.0000000 )
                  (  0.0000000  1.0000000  0.0000000 )


      isym = 14     180 deg rotation - cart. axis [0,1,-1]       

 cryst.   s(14) = (    -1          0          0      )
                  (     0          0         -1      )
                  (     0         -1          0      )

 cart.    s(14) = ( -1.0000000  0.0000000  0.0000000 )
                  (  0.0000000  0.0000000 -1.0000000 )
                  (  0.0000000 -1.0000000  0.0000000 )


      isym = 15      90 deg rotation - cart. axis [-1,0,0]       

 cryst.   s(15) = (     1          0          0      )
                  (     0          0         -1      )
                  (     0          1          0      )

 cart.    s(15) = (  1.0000000  0.0000000  0.0000000 )
                  (  0.0000000  0.0000000  1.0000000 )
                  (  0.0000000 -1.0000000  0.0000000 )


      isym = 16      90 deg rotation - cart. axis [1,0,0]        

 cryst.   s(16) = (     1          0          0      )
                  (     0          0          1      )
                  (     0         -1          0      )

 cart.    s(16) = (  1.0000000  0.0000000  0.0000000 )
                  (  0.0000000  0.0000000 -1.0000000 )
                  (  0.0000000  1.0000000  0.0000000 )


      isym = 17     120 deg rotation - cart. axis [-1,-1,-1]     

 cryst.   s(17) = (     0          0          1      )
                  (     1          0          0      )
                  (     0          1          0      )

 cart.    s(17) = (  0.0000000  1.0000000  0.0000000 )
                  (  0.0000000  0.0000000  1.0000000 )
                  (  1.0000000  0.0000000  0.0000000 )


      isym = 18     120 deg rotation - cart. axis [-1,1,1]       

 cryst.   s(18) = (     0          0         -1      )
                  (    -1          0          0      )
                  (     0          1          0      )

 cart.    s(18) = (  0.0000000 -1.0000000  0.0000000 )
                  (  0.0000000  0.0000000  1.0000000 )
                  ( -1.0000000  0.0000000  0.0000000 )


      isym = 19     120 deg rotation - cart. axis [1,1,-1]       

 cryst.   s(19) = (     0          0         -1      )
                  (     1          0          0      )
                  (     0         -1          0      )

 cart.    s(19) = (  0.0000000  1.0000000  0.0000000 )
                  (  0.0000000  0.0000000 -1.0000000 )
                  ( -1.0000000  0.0000000  0.0000000 )


      isym = 20     120 deg rotation - cart. axis [1,-1,1]       

 cryst.   s(20) = (     0          0          1      )
                  (    -1          0          0      )
                  (     0         -1          0      )

 cart.    s(20) = (  0.0000000 -1.0000000  0.0000000 )
                  (  0.0000000  0.0000000 -1.0000000 )
                  (  1.0000000  0.0000000  0.0000000 )


      isym = 21     120 deg rotation - cart. axis [1,1,1]        

 cryst.   s(21) = (     0          1          0      )
                  (     0          0          1      )
                  (     1          0          0      )

 cart.    s(21) = (  0.0000000  0.0000000  1.0000000 )
                  (  1.0000000  0.0000000  0.0000000 )
                  (  0.0000000  1.0000000  0.0000000 )


      isym = 22     120 deg rotation - cart. axis [-1,1,-1]      

 cryst.   s(22) = (     0         -1          0      )
                  (     0          0         -1      )
                  (     1          0          0      )

 cart.    s(22) = (  0.0000000  0.0000000  1.0000000 )
                  ( -1.0000000  0.0000000  0.0000000 )
                  (  0.0000000 -1.0000000  0.0000000 )


      isym = 23     120 deg rotation - cart. axis [1,-1,-1]      

 cryst.   s(23) = (     0         -1          0      )
                  (     0          0          1      )
                  (    -1          0          0      )

 cart.    s(23) = (  0.0000000  0.0000000 -1.0000000 )
                  ( -1.0000000  0.0000000  0.0000000 )
                  (  0.0000000  1.0000000  0.0000000 )


      isym = 24     120 deg rotation - cart. axis [-1,-1,1]      

 cryst.   s(24) = (     0          1          0      )
                  (     0          0         -1      )
                  (    -1          0          0      )

 cart.    s(24) = (  0.0000000  0.0000000 -1.0000000 )
                  (  1.0000000  0.0000000  0.0000000 )
                  (  0.0000000 -1.0000000  0.0000000 )


      isym = 25     inversion                                    

 cryst.   s(25) = (    -1          0          0      )
                  (     0         -1          0      )
                  (     0          0         -1      )

 cart.    s(25) = ( -1.0000000  0.0000000  0.0000000 )
                  (  0.0000000 -1.0000000  0.0000000 )
                  (  0.0000000  0.0000000 -1.0000000 )


      isym = 26     inv. 180 deg rotation - cart. axis [0,0,1]   

 cryst.   s(26) = (     1          0          0      )
                  (     0          1          0      )
                  (     0          0         -1      )

 cart.    s(26) = (  1.0000000  0.0000000  0.0000000 )
                  (  0.0000000  1.0000000  0.0000000 )
                  (  0.0000000  0.0000000 -1.0000000 )


      isym = 27     inv. 180 deg rotation - cart. axis [0,1,0]   

 cryst.   s(27) = (     1          0          0      )
                  (     0         -1          0      )
                  (     0          0          1      )

 cart.    s(27) = (  1.0000000  0.0000000  0.0000000 )
                  (  0.0000000 -1.0000000  0.0000000 )
                  (  0.0000000  0.0000000  1.0000000 )


      isym = 28     inv. 180 deg rotation - cart. axis [1,0,0]   

 cryst.   s(28) = (    -1          0          0      )
                  (     0          1          0      )
                  (     0          0          1      )

 cart.    s(28) = ( -1.0000000  0.0000000  0.0000000 )
                  (  0.0000000  1.0000000  0.0000000 )
                  (  0.0000000  0.0000000  1.0000000 )


      isym = 29     inv. 180 deg rotation - cart. axis [1,1,0]   

 cryst.   s(29) = (     0         -1          0      )
                  (    -1          0          0      )
                  (     0          0          1      )

 cart.    s(29) = (  0.0000000 -1.0000000  0.0000000 )
                  ( -1.0000000  0.0000000  0.0000000 )
                  (  0.0000000  0.0000000  1.0000000 )


      isym = 30     inv. 180 deg rotation - cart. axis [1,-1,0]  

 cryst.   s(30) = (     0          1          0      )
                  (     1          0          0      )
                  (     0          0          1      )

 cart.    s(30) = (  0.0000000  1.0000000  0.0000000 )
                  (  1.0000000  0.0000000  0.0000000 )
                  (  0.0000000  0.0000000  1.0000000 )


      isym = 31     inv.  90 deg rotation - cart. axis [0,0,-1]  

 cryst.   s(31) = (     0          1          0      )
                  (    -1          0          0      )
                  (     0          0         -1      )

 cart.    s(31) = (  0.0000000 -1.0000000  0.0000000 )
                  (  1.0000000  0.0000000  0.0000000 )
                  (  0.0000000  0.0000000 -1.0000000 )


      isym = 32     inv.  90 deg rotation - cart. axis [0,0,1]   

 cryst.   s(32) = (     0         -1          0      )
                  (     1          0          0      )
                  (     0          0         -1      )

 cart.    s(32) = (  0.0000000  1.0000000  0.0000000 )
                  ( -1.0000000  0.0000000  0.0000000 )
                  (  0.0000000  0.0000000 -1.0000000 )


      isym = 33     inv. 180 deg rotation - cart. axis [1,0,1]   

 cryst.   s(33) = (     0          0         -1      )
                  (     0          1          0      )
                  (    -1          0          0      )

 cart.    s(33) = (  0.0000000  0.0000000 -1.0000000 )
                  (  0.0000000  1.0000000  0.0000000 )
                  ( -1.0000000  0.0000000  0.0000000 )


      isym = 34     inv. 180 deg rotation - cart. axis [-1,0,1]  

 cryst.   s(34) = (     0          0          1      )
                  (     0          1          0      )
                  (     1          0          0      )

 cart.    s(34) = (  0.0000000  0.0000000  1.0000000 )
                  (  0.0000000  1.0000000  0.0000000 )
                  (  1.0000000  0.0000000  0.0000000 )


      isym = 35     inv.  90 deg rotation - cart. axis [0,1,0]   

 cryst.   s(35) = (     0          0          1      )
                  (     0         -1          0      )
                  (    -1          0          0      )

 cart.    s(35) = (  0.0000000  0.0000000 -1.0000000 )
                  (  0.0000000 -1.0000000  0.0000000 )
                  (  1.0000000  0.0000000  0.0000000 )


      isym = 36     inv.  90 deg rotation - cart. axis [0,-1,0]  

 cryst.   s(36) = (     0          0         -1      )
                  (     0         -1          0      )
                  (     1          0          0      )

 cart.    s(36) = (  0.0000000  0.0000000  1.0000000 )
                  (  0.0000000 -1.0000000  0.0000000 )
                  ( -1.0000000  0.0000000  0.0000000 )


      isym = 37     inv. 180 deg rotation - cart. axis [0,1,1]   

 cryst.   s(37) = (     1          0          0      )
                  (     0          0         -1      )
                  (     0         -1          0      )

 cart.    s(37) = (  1.0000000  0.0000000  0.0000000 )
                  (  0.0000000  0.0000000 -1.0000000 )
                  (  0.0000000 -1.0000000  0.0000000 )


      isym = 38     inv. 180 deg rotation - cart. axis [0,1,-1]  

 cryst.   s(38) = (     1          0          0      )
                  (     0          0          1      )
                  (     0          1          0      )

 cart.    s(38) = (  1.0000000  0.0000000  0.0000000 )
                  (  0.0000000  0.0000000  1.0000000 )
                  (  0.0000000  1.0000000  0.0000000 )


      isym = 39     inv.  90 deg rotation - cart. axis [-1,0,0]  

 cryst.   s(39) = (    -1          0          0      )
                  (     0          0          1      )
                  (     0         -1          0      )

 cart.    s(39) = ( -1.0000000  0.0000000  0.0000000 )
                  (  0.0000000  0.0000000 -1.0000000 )
                  (  0.0000000  1.0000000  0.0000000 )


      isym = 40     inv.  90 deg rotation - cart. axis [1,0,0]   

 cryst.   s(40) = (    -1          0          0      )
                  (     0          0         -1      )
                  (     0          1          0      )

 cart.    s(40) = ( -1.0000000  0.0000000  0.0000000 )
                  (  0.0000000  0.0000000  1.0000000 )
                  (  0.0000000 -1.0000000  0.0000000 )


      isym = 41     inv. 120 deg rotation - cart. axis [-1,-1,-1]

 cryst.   s(41) = (     0          0         -1      )
                  (    -1          0          0      )
                  (     0         -1          0      )

 cart.    s(41) = (  0.0000000 -1.0000000  0.0000000 )
                  (  0.0000000  0.0000000 -1.0000000 )
                  ( -1.0000000  0.0000000  0.0000000 )


      isym = 42     inv. 120 deg rotation - cart. axis [-1,1,1]  

 cryst.   s(42) = (     0          0          1      )
                  (     1          0          0      )
                  (     0         -1          0      )

 cart.    s(42) = (  0.0000000  1.0000000  0.0000000 )
                  (  0.0000000  0.0000000 -1.0000000 )
                  (  1.0000000  0.0000000  0.0000000 )


      isym = 43     inv. 120 deg rotation - cart. axis [1,1,-1]  

 cryst.   s(43) = (     0          0          1      )
                  (    -1          0          0      )
                  (     0          1          0      )

 cart.    s(43) = (  0.0000000 -1.0000000  0.0000000 )
                  (  0.0000000  0.0000000  1.0000000 )
                  (  1.0000000  0.0000000  0.0000000 )


      isym = 44     inv. 120 deg rotation - cart. axis [1,-1,1]  

 cryst.   s(44) = (     0          0         -1      )
                  (     1          0          0      )
                  (     0          1          0      )

 cart.    s(44) = (  0.0000000  1.0000000  0.0000000 )
                  (  0.0000000  0.0000000  1.0000000 )
                  ( -1.0000000  0.0000000  0.0000000 )


      isym = 45     inv. 120 deg rotation - cart. axis [1,1,1]   

 cryst.   s(45) = (     0         -1          0      )
                  (     0          0         -1      )
                  (    -1          0          0      )

 cart.    s(45) = (  0.0000000  0.0000000 -1.0000000 )
                  ( -1.0000000  0.0000000  0.0000000 )
                  (  0.0000000 -1.0000000  0.0000000 )


      isym = 46     inv. 120 deg rotation - cart. axis [-1,1,-1] 

 cryst.   s(46) = (     0          1          0      )
                  (     0          0          1      )
                  (    -1          0          0      )

 cart.    s(46) = (  0.0000000  0.0000000 -1.0000000 )
                  (  1.0000000  0.0000000  0.0000000 )
                  (  0.0000000  1.0000000  0.0000000 )


      isym = 47     inv. 120 deg rotation - cart. axis [1,-1,-1] 

 cryst.   s(47) = (     0          1          0      )
                  (     0          0         -1      )
                  (     1          0          0      )

 cart.    s(47) = (  0.0000000  0.0000000  1.0000000 )
                  (  1.0000000  0.0000000  0.0000000 )
                  (  0.0000000 -1.0000000  0.0000000 )


      isym = 48     inv. 120 deg rotation - cart. axis [-1,-1,1] 

 cryst.   s(48) = (     0         -1          0      )
                  (     0          0          1      )
                  (     1          0          0      )

 cart.    s(48) = (  0.0000000  0.0000000  1.0000000 )
                  ( -1.0000000  0.0000000  0.0000000 )
                  (  0.0000000  1.0000000  0.0000000 )


   Cartesian axes

     site n.     atom                  positions (alat units)
         1           Sr  tau(   1) = (   0.5000000   0.5000000   0.5000000  )
         2           Sn  tau(   2) = (   0.0000000   0.0000000   0.0000000  )
         3           O   tau(   3) = (   0.0000000   0.0000000   0.5000000  )
         4           O   tau(   4) = (   0.5000000   0.0000000   0.0000000  )
         5           O   tau(   5) = (   0.0000000   0.5000000   0.0000000  )

   Crystallographic axes

     site n.     atom                  positions (cryst. coord.)
         1           Sr  tau(   1) = (  0.5000000  0.5000000  0.5000000  )
         2           Sn  tau(   2) = (  0.0000000  0.0000000  0.0000000  )
         3           O   tau(   3) = (  0.0000000  0.0000000  0.5000000  )
         4           O   tau(   4) = (  0.5000000  0.0000000  0.0000000  )
         5           O   tau(   5) = (  0.0000000  0.5000000  0.0000000  )

     number of k points=    20 (tetrahedron method)
                       cart. coord. in units 2pi/alat
        k(    1) = (   0.0000000   0.0000000   0.0000000), wk =   0.0092593
        k(    2) = (   0.0000000   0.0000000   0.1666667), wk =   0.0555556
        k(    3) = (   0.0000000   0.0000000   0.3333333), wk =   0.0555556
        k(    4) = (   0.0000000   0.0000000  -0.5000000), wk =   0.0277778
        k(    5) = (   0.0000000   0.1666667   0.1666667), wk =   0.1111111
        k(    6) = (   0.0000000   0.1666667   0.3333333), wk =   0.2222222
        k(    7) = (   0.0000000   0.1666667  -0.5000000), wk =   0.1111111
        k(    8) = (   0.0000000   0.3333333   0.3333333), wk =   0.1111111
        k(    9) = (   0.0000000   0.3333333  -0.5000000), wk =   0.1111111
        k(   10) = (   0.0000000  -0.5000000  -0.5000000), wk =   0.0277778
        k(   11) = (   0.1666667   0.1666667   0.1666667), wk =   0.0740741
        k(   12) = (   0.1666667   0.1666667   0.3333333), wk =   0.2222222
        k(   13) = (   0.1666667   0.1666667  -0.5000000), wk =   0.1111111
        k(   14) = (   0.1666667   0.3333333   0.3333333), wk =   0.2222222
        k(   15) = (   0.1666667   0.3333333  -0.5000000), wk =   0.2222222
        k(   16) = (   0.1666667  -0.5000000  -0.5000000), wk =   0.0555556
        k(   17) = (   0.3333333   0.3333333   0.3333333), wk =   0.0740741
        k(   18) = (   0.3333333   0.3333333  -0.5000000), wk =   0.1111111
        k(   19) = (   0.3333333  -0.5000000  -0.5000000), wk =   0.0555556
        k(   20) = (  -0.5000000  -0.5000000  -0.5000000), wk =   0.0092593

                       cryst. coord.
        k(    1) = (   0.0000000   0.0000000   0.0000000), wk =   0.0092593
        k(    2) = (   0.0000000   0.0000000   0.1666667), wk =   0.0555556
        k(    3) = (   0.0000000   0.0000000   0.3333333), wk =   0.0555556
        k(    4) = (   0.0000000   0.0000000  -0.5000000), wk =   0.0277778
        k(    5) = (   0.0000000   0.1666667   0.1666667), wk =   0.1111111
        k(    6) = (   0.0000000   0.1666667   0.3333333), wk =   0.2222222
        k(    7) = (   0.0000000   0.1666667  -0.5000000), wk =   0.1111111
        k(    8) = (   0.0000000   0.3333333   0.3333333), wk =   0.1111111
        k(    9) = (   0.0000000   0.3333333  -0.5000000), wk =   0.1111111
        k(   10) = (   0.0000000  -0.5000000  -0.5000000), wk =   0.0277778
        k(   11) = (   0.1666667   0.1666667   0.1666667), wk =   0.0740741
        k(   12) = (   0.1666667   0.1666667   0.3333333), wk =   0.2222222
        k(   13) = (   0.1666667   0.1666667  -0.5000000), wk =   0.1111111
        k(   14) = (   0.1666667   0.3333333   0.3333333), wk =   0.2222222
        k(   15) = (   0.1666667   0.3333333  -0.5000000), wk =   0.2222222
        k(   16) = (   0.1666667  -0.5000000  -0.5000000), wk =   0.0555556
        k(   17) = (   0.3333333   0.3333333   0.3333333), wk =   0.0740741
        k(   18) = (   0.3333333   0.3333333  -0.5000000), wk =   0.1111111
        k(   19) = (   0.3333333  -0.5000000  -0.5000000), wk =   0.0555556
        k(   20) = (  -0.5000000  -0.5000000  -0.5000000), wk =   0.0092593

     Dense  grid:    29423 G-vectors     FFT dimensions: (  40,  40,  40)

     Dynamical RAM for                 wfc:       1.80 MB

     Dynamical RAM for     wfc (w. buffer):       1.80 MB

     Dynamical RAM for           str. fact:       1.35 MB

     Dynamical RAM for           local pot:       0.00 MB

     Dynamical RAM for          nlocal pot:       3.38 MB

     Dynamical RAM for                qrad:       4.62 MB

     Dynamical RAM for          rho,v,vnew:       2.81 MB

     Dynamical RAM for           G-vectors:       1.91 MB

     Dynamical RAM for          h,s,v(r/c):       0.05 MB

     Dynamical RAM for          <psi|beta>:       0.03 MB

     Dynamical RAM for      wfcinit/wfcrot:       3.63 MB

     Dynamical RAM for           addusdens:      84.85 MB

     Estimated static dynamical RAM per process >      20.10 MB

     Estimated max dynamical RAM per process >     104.95 MB

     Check: negative/imaginary core charge=   -0.000010    0.000000

     The potential is recalculated from file :
     ./SrSnO3/pwscf.save/charge-density.dat

     Starting wfcs are   29 randomized atomic wfcs +    3 random wfcs

     Band Structure Calculation
     CG style diagonalization

     Computing kpt #:     1
     total cpu time spent up to now is        9.9 secs

     Computing kpt #:     2
     total cpu time spent up to now is       21.4 secs

     Computing kpt #:     3
     total cpu time spent up to now is       33.7 secs

     Computing kpt #:     4
     total cpu time spent up to now is       43.5 secs

     Computing kpt #:     5
     total cpu time spent up to now is       54.3 secs

     Computing kpt #:     6
     total cpu time spent up to now is       70.8 secs

     Computing kpt #:     7
     total cpu time spent up to now is       84.0 secs

     Computing kpt #:     8
     total cpu time spent up to now is       96.1 secs

     Computing kpt #:     9
     total cpu time spent up to now is      106.5 secs

     Computing kpt #:    10
     total cpu time spent up to now is      116.7 secs

     Computing kpt #:    11
     total cpu time spent up to now is      128.6 secs

     Computing kpt #:    12
     total cpu time spent up to now is      144.9 secs

     Computing kpt #:    13
     total cpu time spent up to now is      155.8 secs

     Computing kpt #:    14
     total cpu time spent up to now is      168.0 secs

     Computing kpt #:    15
     total cpu time spent up to now is      179.0 secs

     Computing kpt #:    16
     total cpu time spent up to now is      188.8 secs

     Computing kpt #:    17
     total cpu time spent up to now is      198.6 secs

     Computing kpt #:    18
     total cpu time spent up to now is      209.6 secs

     Computing kpt #:    19
     total cpu time spent up to now is      223.1 secs

     Computing kpt #:    20
     total cpu time spent up to now is      229.3 secs

     ethr =  2.38E-11,  avg # of iterations = 97.1

     total cpu time spent up to now is      229.3 secs

     End of band structure calculation

          k = 0.0000 0.0000 0.0000 (  3743 PWs)   bands (ev):

   -24.0496 -11.5905 -11.5905 -10.7779 -10.7779 -10.7779  -8.7889  -6.0136
    -6.0136  -6.0136  -5.6991  -5.6991   4.2957   4.2957   4.2957   8.1326
     8.1326   8.1326   8.3489   8.3489   8.3489  10.0444  14.3463  14.3463
    14.8892  16.2463  16.2463  16.2463  21.9928  21.9928  21.9928  24.9789

     occupation numbers 
     1.0000   1.0000   1.0000   1.0000   1.0000   1.0000   1.0000   1.0000
     1.0000   1.0000   1.0000   1.0000   1.0000   1.0000   1.0000   1.0000
     1.0000   1.0000   1.0000   1.0000   1.0000   0.0000   0.0000   0.0000
     0.0000   0.0000   0.0000   0.0000   0.0000   0.0000   0.0000   0.0000

          k = 0.0000 0.0000 0.1667 (  3735 PWs)   bands (ev):

   -24.0470 -11.5895 -11.5178 -10.7827 -10.7827 -10.7778  -8.7321  -6.2894
    -6.0037  -6.0037  -5.6981  -5.6937   4.3304   4.3324   4.3324   7.7084
     7.9584   8.0514   8.0514   8.2838   8.2838  11.0917  14.6946  14.7303
    15.4152  16.3226  16.5541  16.5541  21.4954  21.9679  21.9679  24.0915

     occupation numbers 
     1.0000   1.0000   1.0000   1.0000   1.0000   1.0000   1.0000   1.0000
     1.0000   1.0000   1.0000   1.0000   1.0000   1.0000   1.0000   1.0000
     1.0000   1.0000   1.0000   1.0000   1.0000   0.0000   0.0000   0.0000
     0.0000   0.0000   0.0000   0.0000   0.0000   0.0000   0.0000   0.0000

          k = 0.0000 0.0000 0.3333 (  3683 PWs)   bands (ev):

   -24.0417 -11.5874 -11.3699 -10.7916 -10.7916 -10.7773  -8.5092  -6.9702
    -5.9836  -5.9836  -5.6829  -5.6664   4.4054   4.4054   4.4405   6.9244
     7.6489   7.9283   7.9283   8.1292   8.1292  12.9287  15.4157  15.5066
    16.4895  16.8626  17.1948  17.1948  20.1942  22.0155  22.0155  22.8773

     occupation numbers 
     1.0000   1.0000   1.0000   1.0000   1.0000   1.0000   1.0000   1.0000
     1.0000   1.0000   1.0000   1.0000   1.0000   1.0000   1.0000   1.0000
     1.0000   1.0000   1.0000   1.0000   1.0000   0.0000   0.0000   0.0000
     0.0000   0.0000   0.0000   0.0000   0.0000   0.0000   0.0000   0.0000

          k = 0.0000 0.0000-0.5000 (  3668 PWs)   bands (ev):

   -24.0390 -11.5864 -11.2953 -10.7961 -10.7961 -10.7771  -8.2265  -7.4797
    -5.9736  -5.9736  -5.6773  -5.6480   4.4412   4.4412   4.5226   6.5940
     7.5088   7.9026   7.9026   8.0226   8.0226  14.0549  15.7558  15.9095
    16.5818  17.5335  17.5335  18.6655  18.7344  21.1442  22.2669  22.2669

     occupation numbers 
     1.0000   1.0000   1.0000   1.0000   1.0000   1.0000   1.0000   1.0000
     1.0000   1.0000   1.0000   1.0000   1.0000   1.0000   1.0000   1.0000
     1.0000   1.0000   1.0000   1.0000   1.0000   0.0000   0.0000   0.0000
     0.0000   0.0000   0.0000   0.0000   0.0000   0.0000   0.0000   0.0000

          k = 0.0000 0.1667 0.1667 (  3703 PWs)   bands (ev):

   -24.0444 -11.5540 -11.4760 -10.7868 -10.7824 -10.7819  -8.6742  -6.4567
    -6.0403  -5.9949  -5.7318  -5.7212   3.6951   4.3832   5.1046   7.2591
     7.7057   7.9660   8.1237   8.2098   8.4511  11.7377  14.9864  15.0775
    15.7436  16.6050  16.6292  16.8758  21.0350  21.7713  21.9344  23.0556

     occupation numbers 
     1.0000   1.0000   1.0000   1.0000   1.0000   1.0000   1.0000   1.0000
     1.0000   1.0000   1.0000   1.0000   1.0000   1.0000   1.0000   1.0000
     1.0000   1.0000   1.0000   1.0000   1.0000   0.0000   0.0000   0.0000
     0.0000   0.0000   0.0000   0.0000   0.0000   0.0000   0.0000   0.0000

          k = 0.0000 0.1667 0.3333 (  3692 PWs)   bands (ev):

   -24.0393 -11.5398 -11.3310 -10.7959 -10.7913 -10.7816  -8.4512  -7.0445
    -6.0235  -5.9773  -5.8143  -5.7025   3.3628   4.4872   5.7188   6.6968
     7.4356   7.8328   8.0345   8.0761   8.4357  13.2747  15.6370  15.8278
    16.6809  16.7537  17.2281  17.5242  19.8707  21.2305  21.8145  21.8818

     occupation numbers 
     1.0000   1.0000   1.0000   1.0000   1.0000   1.0000   1.0000   1.0000
     1.0000   1.0000   1.0000   1.0000   1.0000   1.0000   1.0000   1.0000
     1.0000   1.0000   1.0000   1.0000   1.0000   0.0000   0.0000   0.0000
     0.0000   0.0000   0.0000   0.0000   0.0000   0.0000   0.0000   0.0000

          k = 0.0000 0.1667-0.5000 (  3676 PWs)   bands (ev):

   -24.0367 -11.5374 -11.2519 -10.8004 -10.7955 -10.7810  -8.1550  -7.5461
    -5.9684  -5.9337  -5.9222  -5.6829   3.2756   4.5403   5.9607   6.4589
     7.3316   7.8048   7.9126   8.0658   8.3451  14.3462  16.0181  16.1764
    16.8295  17.1248  17.5482  18.5838  18.9683  20.2513  20.9513  21.5858

     occupation numbers 
     1.0000   1.0000   1.0000   1.0000   1.0000   1.0000   1.0000   1.0000
     1.0000   1.0000   1.0000   1.0000   1.0000   1.0000   1.0000   1.0000
     1.0000   1.0000   1.0000   1.0000   1.0000   0.0000   0.0000   0.0000
     0.0000   0.0000   0.0000   0.0000   0.0000   0.0000   0.0000   0.0000

          k = 0.0000 0.3333 0.3333 (  3696 PWs)   bands (ev):

   -24.0345 -11.4868 -11.2002 -10.8041 -10.7906 -10.7900  -8.2447  -7.2998
    -6.3712  -5.9645  -5.8085  -5.7651   2.7555   4.6642   6.3084   6.7687
     7.3797   7.6667   7.8169   8.1547   8.7880  14.3035  16.0058  16.7391
    16.7923  17.2795  17.3161  17.8277  18.9524  20.3755  20.4354  21.7737

     occupation numbers 
     1.0000   1.0000   1.0000   1.0000   1.0000   1.0000   1.0000   1.0000
     1.0000   1.0000   1.0000   1.0000   1.0000   1.0000   1.0000   1.0000
     1.0000   1.0000   1.0000   1.0000   1.0000   0.0000   0.0000   0.0000
     0.0000   0.0000   0.0000   0.0000   0.0000   0.0000   0.0000   0.0000

          k = 0.0000 0.3333-0.5000 (  3688 PWs)   bands (ev):

   -24.0321 -11.4738 -11.1154 -10.8081 -10.7946 -10.7898  -7.9403  -7.6680
    -6.5293  -5.9581  -5.8296  -5.7520   2.5692   4.7611   6.1442   7.1312
     7.4111   7.6192   7.6687   8.2196   8.8559  15.2116  16.4106  16.6445
    17.0978  17.3358  17.5796  18.2428  18.7105  19.3904  20.0710  20.8946

     occupation numbers 
     1.0000   1.0000   1.0000   1.0000   1.0000   1.0000   1.0000   1.0000
     1.0000   1.0000   1.0000   1.0000   1.0000   1.0000   1.0000   1.0000
     1.0000   1.0000   1.0000   1.0000   1.0000   0.0000   0.0000   0.0000
     0.0000   0.0000   0.0000   0.0000   0.0000   0.0000   0.0000   0.0000

          k = 0.0000-0.5000-0.5000 (  3676 PWs)   bands (ev):

   -24.0297 -11.4554 -11.0250 -10.8115 -10.7941 -10.7941  -7.7247  -7.7247
    -6.9409  -5.9529  -5.7871  -5.7871   2.3460   4.8868   5.9978   7.4942
     7.4942   7.5307   7.5307   8.3771   9.0646  15.8412  16.6651  17.0312
    17.4949  17.4949  17.5967  17.5967  18.4000  19.2304  19.7766  20.9416

     occupation numbers 
     1.0000   1.0000   1.0000   1.0000   1.0000   1.0000   1.0000   1.0000
     1.0000   1.0000   1.0000   1.0000   1.0000   1.0000   1.0000   1.0000
     1.0000   1.0000   1.0000   1.0000   1.0000   0.0000   0.0000   0.0000
     0.0000   0.0000   0.0000   0.0000   0.0000   0.0000   0.0000   0.0000

          k = 0.1667 0.1667 0.1667 (  3689 PWs)   bands (ev):

   -24.0419 -11.4748 -11.4748 -10.7867 -10.7867 -10.7864  -8.6155  -6.4065
    -6.4065  -5.8586  -5.7657  -5.7657   3.1039   5.1561   5.1561   6.9991
     7.5827   7.5827   8.3628   8.4082   8.4082  12.2155  15.2698  15.2698
    15.9149  16.8216  16.8216  17.1659  21.0749  21.0749  21.4751  22.5081

     occupation numbers 
     1.0000   1.0000   1.0000   1.0000   1.0000   1.0000   1.0000   1.0000
     1.0000   1.0000   1.0000   1.0000   1.0000   1.0000   1.0000   1.0000
     1.0000   1.0000   1.0000   1.0000   1.0000   0.0000   0.0000   0.0000
     0.0000   0.0000   0.0000   0.0000   0.0000   0.0000   0.0000   0.0000

          k = 0.1667 0.1667 0.3333 (  3697 PWs)   bands (ev):

   -24.0369 -11.4728 -11.3101 -10.7966 -10.7949 -10.7863  -8.3936  -7.0570
    -6.2730  -5.8879  -5.8616  -5.7484   2.6382   5.2629   5.9856   6.6006
     7.2162   7.5784   8.2951   8.3463   8.4611  13.5275  15.8360  15.8843
    16.5779  17.0265  17.0461  17.9305  19.8206  20.5473  21.2948  21.7541

     occupation numbers 
     1.0000   1.0000   1.0000   1.0000   1.0000   1.0000   1.0000   1.0000
     1.0000   1.0000   1.0000   1.0000   1.0000   1.0000   1.0000   1.0000
     1.0000   1.0000   1.0000   1.0000   1.0000   0.0000   0.0000   0.0000
     0.0000   0.0000   0.0000   0.0000   0.0000   0.0000   0.0000   0.0000

          k = 0.1667 0.1667-0.5000 (  3712 PWs)   bands (ev):

   -24.0345 -11.4718 -11.2247 -10.8018 -10.7991 -10.7861  -8.0859  -7.5744
    -6.1412  -6.0143  -5.8710  -5.7381   2.4997   5.3183   6.2963   6.4354
     7.0795   7.7485   8.0903   8.2416   8.4587  14.5397  16.0362  16.3089
    16.9451  17.1942  17.1978  18.5406  19.3000  19.7226  20.5619  21.5442

     occupation numbers 
     1.0000   1.0000   1.0000   1.0000   1.0000   1.0000   1.0000   1.0000
     1.0000   1.0000   1.0000   1.0000   1.0000   1.0000   1.0000   1.0000
     1.0000   1.0000   1.0000   1.0000   1.0000   0.0000   0.0000   0.0000
     0.0000   0.0000   0.0000   0.0000   0.0000   0.0000   0.0000   0.0000

          k = 0.1667 0.3333 0.3333 (  3678 PWs)   bands (ev):

   -24.0322 -11.3956 -11.1990 -10.8046 -10.7953 -10.7950  -8.1902  -7.2402
    -6.5945  -5.9787  -5.8347  -5.8133   1.9817   5.7062   6.3751   6.7890
     7.0982   7.4525   8.2721   8.4389   8.7917  14.3445  16.0487  16.2934
    16.7009  16.9613  17.4027  18.4083  19.3687  19.7074  20.6191  21.6588

     occupation numbers 
     1.0000   1.0000   1.0000   1.0000   1.0000   1.0000   1.0000   1.0000
     1.0000   1.0000   1.0000   1.0000   1.0000   1.0000   1.0000   1.0000
     1.0000   1.0000   1.0000   1.0000   1.0000   0.0000   0.0000   0.0000
     0.0000   0.0000   0.0000   0.0000   0.0000   0.0000   0.0000   0.0000

          k = 0.1667 0.3333-0.5000 (  3686 PWs)   bands (ev):

   -24.0299 -11.3818 -11.1123 -10.8091 -10.7998 -10.7952  -7.8796  -7.6335
    -6.6655  -6.0193  -5.8520  -5.8238   1.7681   5.8354   6.2698   6.9929
     7.0223   7.8043   8.1534   8.3922   8.8770  15.1170  16.1039  16.3496
    16.7680  17.1125  17.7692  18.6073  19.0396  19.2578  20.2709  20.9207

     occupation numbers 
     1.0000   1.0000   1.0000   1.0000   1.0000   1.0000   1.0000   1.0000
     1.0000   1.0000   1.0000   1.0000   1.0000   1.0000   1.0000   1.0000
     1.0000   1.0000   1.0000   1.0000   1.0000   0.0000   0.0000   0.0000
     0.0000   0.0000   0.0000   0.0000   0.0000   0.0000   0.0000   0.0000

          k = 0.1667-0.5000-0.5000 (  3688 PWs)   bands (ev):

   -24.0276 -11.3587 -11.0251 -10.8130 -10.8000 -10.8000  -7.6640  -7.6640
    -7.0524  -5.9991  -5.8640  -5.8640   1.5236   6.0151   6.1713   7.0473
     7.0473   8.1585   8.1585   8.3809   9.0813  15.5332  16.1617  16.1617
    16.9078  17.2031  18.2992  18.7471  18.7471  18.8430  19.8881  21.0868

     occupation numbers 
     1.0000   1.0000   1.0000   1.0000   1.0000   1.0000   1.0000   1.0000
     1.0000   1.0000   1.0000   1.0000   1.0000   1.0000   1.0000   1.0000
     1.0000   1.0000   1.0000   1.0000   1.0000   0.0000   0.0000   0.0000
     0.0000   0.0000   0.0000   0.0000   0.0000   0.0000   0.0000   0.0000

          k = 0.3333 0.3333 0.3333 (  3710 PWs)   bands (ev):

   -24.0277 -11.1975 -11.1975 -10.8068 -10.8068 -10.8040  -8.0088  -7.0993
    -7.0993  -5.9957  -5.9957  -5.8704   1.1728   6.4695   6.8002   6.8002
     7.2829   7.2829   8.7134   8.7134   8.8609  14.5393  15.7435  15.7435
    16.8770  17.3719  17.3719  18.5799  19.3993  19.9631  19.9631  21.6327

     occupation numbers 
     1.0000   1.0000   1.0000   1.0000   1.0000   1.0000   1.0000   1.0000
     1.0000   1.0000   1.0000   1.0000   1.0000   1.0000   1.0000   1.0000
     1.0000   1.0000   1.0000   1.0000   1.0000   0.0000   0.0000   0.0000
     0.0000   0.0000   0.0000   0.0000   0.0000   0.0000   0.0000   0.0000

          k = 0.3333 0.3333-0.5000 (  3680 PWs)   bands (ev):

   -24.0254 -11.1964 -11.0888 -10.8120 -10.8093 -10.8060  -7.7126  -7.5621
    -7.0110  -6.0941  -5.9647  -5.9456   0.8935   6.4881   6.7879   6.8353
     7.2545   8.0105   8.6916   8.7411   8.9656  14.8709  15.3280  15.5436
    17.3194  17.3313  17.8284  18.4198  19.2042  19.5556  20.1553  21.1224

     occupation numbers 
     1.0000   1.0000   1.0000   1.0000   1.0000   1.0000   1.0000   1.0000
     1.0000   1.0000   1.0000   1.0000   1.0000   1.0000   1.0000   1.0000
     1.0000   1.0000   1.0000   1.0000   1.0000   0.0000   0.0000   0.0000
     0.0000   0.0000   0.0000   0.0000   0.0000   0.0000   0.0000   0.0000

          k = 0.3333-0.5000-0.5000 (  3684 PWs)   bands (ev):

   -24.0232 -11.1447 -11.0247 -10.8159 -10.8117 -10.8117  -7.5252  -7.5252
    -7.3020  -6.0893  -6.0351  -6.0351   0.5845   6.5286   6.7913   6.7913
     7.6478   8.3885   8.8202   8.8202   9.1151  14.8839  15.0093  15.0093
    17.5415  17.7793  18.1043  18.1747  19.3580  19.3580  19.8139  21.4031

     occupation numbers 
     1.0000   1.0000   1.0000   1.0000   1.0000   1.0000   1.0000   1.0000
     1.0000   1.0000   1.0000   1.0000   1.0000   1.0000   1.0000   1.0000
     1.0000   1.0000   1.0000   1.0000   1.0000   0.0000   0.0000   0.0000
     0.0000   0.0000   0.0000   0.0000   0.0000   0.0000   0.0000   0.0000

          k =-0.5000-0.5000-0.5000 (  3648 PWs)   bands (ev):

   -24.0210 -11.0244 -11.0244 -10.8170 -10.8170 -10.8170  -7.4430  -7.4430
    -7.4430  -6.1334  -6.1334  -6.1334   0.2452   6.7130   6.7130   6.7130
     8.3924   8.3924   9.1324   9.1324   9.1324  14.5298  14.5298  14.5298
    17.8694  18.0097  18.0097  18.3298  19.4679  19.4679  19.4679  21.5856

     occupation numbers 
     1.0000   1.0000   1.0000   1.0000   1.0000   1.0000   1.0000   1.0000
     1.0000   1.0000   1.0000   1.0000   1.0000   1.0000   1.0000   1.0000
     1.0000   1.0000   1.0000   1.0000   1.0000   0.0000   0.0000   0.0000
     0.0000   0.0000   0.0000   0.0000   0.0000   0.0000   0.0000   0.0000

     the Fermi energy is     9.9123 ev

     Writing output data file pwscf.save/

     init_run     :      1.35s CPU      1.37s WALL (       1 calls)
     electrons    :    225.25s CPU    226.78s WALL (       1 calls)

     Called by init_run:
     wfcinit      :      0.00s CPU      0.00s WALL (       1 calls)
     wfcinit:atom :      0.04s CPU      0.04s WALL (      20 calls)
     wfcinit:wfcr :      1.84s CPU      1.85s WALL (      20 calls)
     potinit      :      0.04s CPU      0.04s WALL (       1 calls)
     hinit0       :      1.20s CPU      1.21s WALL (       1 calls)

     Called by electrons:
     c_bands      :    225.24s CPU    226.78s WALL (       1 calls)
     v_of_rho     :      0.04s CPU      0.04s WALL (       1 calls)
     v_h          :      0.00s CPU      0.00s WALL (       1 calls)
     v_xc         :      0.04s CPU      0.04s WALL (       1 calls)
     newd         :      0.10s CPU      0.10s WALL (       1 calls)

     Called by c_bands:
     init_us_2    :      0.04s CPU      0.05s WALL (      20 calls)
     ccgdiagg     :    223.30s CPU    224.81s WALL (      20 calls)
     wfcrot       :      1.84s CPU      1.85s WALL (      20 calls)

     Called by sum_band:

     Called by *cgdiagg:
     h_psi        :    134.77s CPU    135.50s WALL (   62188 calls)
     s_psi        :     40.80s CPU     41.19s WALL (  124356 calls)
     cdiaghg      :      0.01s CPU      0.01s WALL (      20 calls)

     Called by h_psi:
     h_psi:pot    :    134.12s CPU    134.85s WALL (   62188 calls)
     h_psi:calbec :     20.67s CPU     20.77s WALL (   62188 calls)
     vloc_psi     :     91.63s CPU     92.16s WALL (   62188 calls)
     add_vuspsi   :     21.45s CPU     21.57s WALL (   62188 calls)
     h_1psi       :    154.82s CPU    155.72s WALL (   62168 calls)

     General routines
     calbec       :     39.91s CPU     40.21s WALL (  124356 calls)
     fft          :      0.01s CPU      0.01s WALL (      13 calls)
     fftw         :     83.02s CPU     83.49s WALL (  125616 calls)
     davcio       :      0.00s CPU      0.03s WALL (      40 calls)


     PWSCF        :  3m47.81s CPU     3m49.44s WALL


   This run was terminated on:   6:53:30  23Jun2019            

=------------------------------------------------------------------------------=
   JOB DONE.
=------------------------------------------------------------------------------=
