
     Program BANDS v.6.3MaX starts on  7May2019 at 10:13:35 

     This program is part of the open-source Quantum ESPRESSO suite
     for quantum simulation of materials; please cite
         "P. Giannozzi et al., J. Phys.:Condens. Matter 21 395502 (2009);
         "P. Giannozzi et al., J. Phys.:Condens. Matter 29 465901 (2017);
          URL http://www.quantum-espresso.org", 
     in publications or presentations arising from this work. More details at
     http://www.quantum-espresso.org/quote

     Serial version

     Reading data from directory:
     ./Li12Sb4.pw.vdw.vcrelax/pwscf.save/

     IMPORTANT: XC functional enforced from input :
     Exchange-correlation      = VDW-DF ( 1  4  4  0 1 0)
     Any further DFT definition will be discarded
     Please, verify this is what you really want

               file Li.pw-mt_fhi.UPF: wavefunction(s)  2p 4f renormalized
               file Sb.pw-mt_fhi.UPF: wavefunction(s)  5d 4f renormalized
 
     G-vector sticks info
     --------------------
     sticks:   dense  smooth     PW     G-vecs:    dense   smooth      PW
     Sum        1261    1261    361                29603    29603    4573
 


     %%%%%%%%%%%%%%%%%%%%%%%%%%%%%%%%%%%%%%%%%%%%%%%%%%%%%%%%%%%%%%%%%%%%%%%%
     %                                                                      %
     % You are using vdW-DF, which was implemented by the Thonhauser group. %
     % Please cite the following two papers that made this development      %
     % possible and the two reviews that describe the various versions:     %
     %                                                                      %
     %   T. Thonhauser et al., PRL 115, 136402 (2015).                      %
     %   T. Thonhauser et al., PRB 76, 125112 (2007).                       %
     %   K. Berland et al., Rep. Prog. Phys. 78, 066501 (2015).             %
     %   D.C. Langreth et al., J. Phys.: Condens. Matter 21, 084203 (2009). %
     %                                                                      %
     %                                                                      %
     % If you are calculating the stress with vdW-DF, please also cite:     %
     %                                                                      %
     %   R. Sabatini et al., J. Phys.: Condens. Matter 24, 424209 (2012).   %
     %                                                                      %
     %%%%%%%%%%%%%%%%%%%%%%%%%%%%%%%%%%%%%%%%%%%%%%%%%%%%%%%%%%%%%%%%%%%%%%%%


     high-symmetry point:  0.0000 0.0000 0.0000   x coordinate   0.0000
     high-symmetry point:  0.0000 0.7071 0.0000   x coordinate   0.7071
     high-symmetry point:  0.3536 0.7071 0.0000   x coordinate   1.0607
     high-symmetry point:  0.5303 0.5303 0.0000   x coordinate   1.3107
     high-symmetry point:  0.0000 0.0000 0.0000   x coordinate   2.0607
     high-symmetry point:  0.3536 0.3536 0.3536   x coordinate   2.6730
     high-symmetry point:  0.1768 0.7071 0.1768   x coordinate   3.1060
     high-symmetry point:  0.3536 0.7071 0.0000   x coordinate   3.3560
     high-symmetry point:  0.3536 0.3536 0.3536   x coordinate   3.8560
     high-symmetry point:  0.5303 0.5303 0.0000   x coordinate   4.2891
     high-symmetry point:  0.1768 0.7071 0.1768   x coordinate   4.2891
     high-symmetry point:  0.0000 0.7071 0.0000   x coordinate   4.5391

     Plottable bands (eV) written to file Li12Sb4.pw.vdw.vcrelax.qe.std_prim.bands.in.dat.gnu
     Bands written to file Li12Sb4.pw.vdw.vcrelax.qe.std_prim.bands.in.dat

 **************************************************************************

                    xk=(   0.00000,   0.00000,   0.00000  )

     point group O_h (m-3m) 
     there are 10 classes
     the character table:

       E     8C3   3C2   6C4   6C2'  i     8S6   3s_h  6S4   6s_d 
A_1g   1.00  1.00  1.00  1.00  1.00  1.00  1.00  1.00  1.00  1.00
A_2g   1.00  1.00  1.00 -1.00 -1.00  1.00  1.00  1.00 -1.00 -1.00
E_g    2.00 -1.00  2.00  0.00  0.00  2.00 -1.00  2.00  0.00  0.00
T_1g   3.00  0.00 -1.00  1.00 -1.00  3.00  0.00 -1.00  1.00 -1.00
T_2g   3.00  0.00 -1.00 -1.00  1.00  3.00  0.00 -1.00 -1.00  1.00
A_1u   1.00  1.00  1.00  1.00  1.00 -1.00 -1.00 -1.00 -1.00 -1.00
A_2u   1.00  1.00  1.00 -1.00 -1.00 -1.00 -1.00 -1.00  1.00  1.00
E_u    2.00 -1.00  2.00  0.00  0.00 -2.00  1.00 -2.00  0.00  0.00
T_1u   3.00  0.00 -1.00  1.00 -1.00 -3.00  0.00  1.00 -1.00  1.00
T_2u   3.00  0.00 -1.00 -1.00  1.00 -3.00  0.00  1.00  1.00 -1.00

     the symmetry operations in each class and the name of the first element:

     E        1
                                                                 
     8C3     17   19   20   18   24   21   22   23
                                                                 
     3C2      2    4    3
                                                                 
     6C4      7    8   15   16   12   11
                                                                 
     6C2'     5    6   14   13   10    9
                                                                 
     i       25
                                                                 
     8S6     41   43   44   42   48   45   46   47
                                                                 
     3s_h    26   28   27
                                                                 
     6S4     31   32   39   40   36   35
                                                                 
     6s_d    29   30   38   37   34   33
                                                                 

     Band symmetry, O_h (m-3m)  point group:

     e(  1 -  1) =     -5.77218  eV     1   --> A_1g G_1   G_1+
     e(  2 -  4) =      3.53676  eV     3   --> T_1u G_15  G_4-
     e(  5 -  5) =      6.23141  eV     1   --> A_1g G_1   G_1+
     e(  6 -  8) =      6.88005  eV     3   --> T_2g G_25' G_5+
     e(  9 - 11) =      8.88429  eV     3   --> T_1u G_15  G_4-
     e( 12 - 13) =     11.07658  eV     2   --> E_g  G_12  G_3+
     e( 14 - 14) =     12.94247  eV     1   --> A_2u G_2'  G_2-
     e( 15 - 15) =     17.26862  eV     1   --> A_1g G_1   G_1+
     e( 16 - 18) =     18.94347  eV     3   --> T_1u G_15  G_4-
     e( 19 - 21) =     22.98262  eV     3   --> T_2u G_25  G_5-
     e( 22 - 24) =     23.76063  eV     3   --> T_2g G_25' G_5+
     e( 25 - 26) =     24.97117  eV     2   --> E_g  G_12  G_3+
     e( 27 - 29) =     28.43803  eV     3   --> T_1u G_15  G_4-
     e( 30 - 32) =     28.89210  eV     3   --> T_2g G_25' G_5+

 **************************************************************************

 **************************************************************************

                    xk=(   0.00000,   0.03536,   0.00000  )

     point group C_4v (4mm) 
     there are  5 classes
     the character table:

       E     2C4   C2    2s_v  2s_d 
A_1    1.00  1.00  1.00  1.00  1.00
A_2    1.00  1.00  1.00 -1.00 -1.00
B_1    1.00 -1.00  1.00  1.00 -1.00
B_2    1.00 -1.00  1.00 -1.00  1.00
E      2.00  0.00 -2.00  0.00  0.00

     the symmetry operations in each class and the name of the first element:

     E        1
                                                                 
     2C4      3    4
                                                                 
     C2       2
                                                                 
     2s_v     5    6
                                                                 
     2s_d     7    8
                                                                 

     Band symmetry, C_4v (4mm)  point group:

     e(  1 -  1) =     -5.76794  eV     1   --> A_1  G_1 D_1   
     e(  2 -  2) =      3.50408  eV     1   --> A_1  G_1 D_1   
     e(  3 -  4) =      3.51238  eV     2   --> E    G_5 D_5   
     e(  5 -  5) =      6.27051  eV     1   --> A_1  G_1 D_1   
     e(  6 -  6) =      6.88098  eV     1   --> B_2  G_4 D_2'  
     e(  7 -  8) =      6.91173  eV     2   --> E    G_5 D_5   
     e(  9 -  9) =      8.77747  eV     1   --> A_1  G_1 D_1   
     e( 10 - 11) =      8.90254  eV     2   --> E    G_5 D_5   
     e( 12 - 12) =     11.08462  eV     1   --> B_1  G_3 D_2   
     e( 13 - 13) =     11.20511  eV     1   --> A_1  G_1 D_1   
     e( 14 - 14) =     12.94955  eV     1   --> B_2  G_4 D_2'  
     e( 15 - 15) =     17.27023  eV     1   --> A_1  G_1 D_1   
     e( 16 - 17) =     18.90141  eV     2   --> E    G_5 D_5   
     e( 18 - 18) =     18.92096  eV     1   --> A_1  G_1 D_1   
     e( 19 - 19) =     22.81183  eV     1   --> B_1  G_3 D_2   
     e( 20 - 21) =     22.82045  eV     2   --> E    G_5 D_5   
     e( 22 - 22) =     23.76714  eV     1   --> B_2  G_4 D_2'  
     e( 23 - 24) =     23.97758  eV     2   --> E    G_5 D_5   
     e( 25 - 25) =     25.00646  eV     1   --> A_1  G_1 D_1   
     e( 26 - 26) =     25.15216  eV     1   --> B_1  G_3 D_2   
     e( 27 - 27) =     28.35232  eV     1   --> A_1  G_1 D_1   
     e( 28 - 29) =     28.42351  eV     2   --> E    G_5 D_5   
     e( 30 - 31) =     28.80861  eV     2   --> E    G_5 D_5   
     e( 32 - 32) =     28.83734  eV     1   --> B_2  G_4 D_2'  

 **************************************************************************

 **************************************************************************

                    xk=(   0.00000,   0.07071,   0.00000  )

     Band symmetry, C_4v (4mm)  point group:

     e(  1 -  1) =     -5.75526  eV     1   --> A_1  G_1 D_1   
     e(  2 -  2) =      3.41113  eV     1   --> A_1  G_1 D_1   
     e(  3 -  4) =      3.44248  eV     2   --> E    G_5 D_5   
     e(  5 -  5) =      6.38185  eV     1   --> A_1  G_1 D_1   
     e(  6 -  6) =      6.88377  eV     1   --> B_2  G_4 D_2'  
     e(  7 -  8) =      7.00293  eV     2   --> E    G_5 D_5   
     e(  9 -  9) =      8.51382  eV     1   --> A_1  G_1 D_1   
     e( 10 - 11) =      8.95785  eV     2   --> E    G_5 D_5   
     e( 12 - 12) =     11.10872  eV     1   --> B_1  G_3 D_2   
     e( 13 - 13) =     11.53420  eV     1   --> A_1  G_1 D_1   
     e( 14 - 14) =     12.97076  eV     1   --> B_2  G_4 D_2'  
     e( 15 - 15) =     17.27544  eV     1   --> A_1  G_1 D_1   
     e( 16 - 17) =     18.77574  eV     2   --> E    G_5 D_5   
     e( 18 - 18) =     18.85542  eV     1   --> A_1  G_1 D_1   
     e( 19 - 19) =     22.41337  eV     1   --> B_1  G_3 D_2   
     e( 20 - 21) =     22.55260  eV     2   --> E    G_5 D_5   
     e( 22 - 22) =     23.78667  eV     1   --> B_2  G_4 D_2'  
     e( 23 - 24) =     24.40756  eV     2   --> E    G_5 D_5   
     e( 25 - 25) =     25.10993  eV     1   --> A_1  G_1 D_1   
     e( 26 - 26) =     25.58102  eV     1   --> B_1  G_3 D_2   
     e( 27 - 27) =     28.10468  eV     1   --> A_1  G_1 D_1   
     e( 28 - 29) =     28.38197  eV     2   --> E    G_5 D_5   
     e( 30 - 31) =     28.57619  eV     2   --> E    G_5 D_5   
     e( 32 - 32) =     28.67566  eV     1   --> B_2  G_4 D_2'  

 **************************************************************************

 **************************************************************************

                    xk=(   0.00000,   0.10607,   0.00000  )

     Band symmetry, C_4v (4mm)  point group:

     e(  1 -  1) =     -5.73427  eV     1   --> A_1  G_1 D_1   
     e(  2 -  2) =      3.27006  eV     1   --> A_1  G_1 D_1   
     e(  3 -  4) =      3.33537  eV     2   --> E    G_5 D_5   
     e(  5 -  5) =      6.54970  eV     1   --> A_1  G_1 D_1   
     e(  6 -  6) =      6.88833  eV     1   --> B_2  G_4 D_2'  
     e(  7 -  8) =      7.14361  eV     2   --> E    G_5 D_5   
     e(  9 -  9) =      8.18342  eV     1   --> A_1  G_1 D_1   
     e( 10 - 11) =      9.05190  eV     2   --> E    G_5 D_5   
     e( 12 - 12) =     11.14888  eV     1   --> B_1  G_3 D_2   
     e( 13 - 13) =     11.97563  eV     1   --> A_1  G_1 D_1   
     e( 14 - 14) =     13.00596  eV     1   --> B_2  G_4 D_2'  
     e( 15 - 15) =     17.28547  eV     1   --> A_1  G_1 D_1   
     e( 16 - 17) =     18.56946  eV     2   --> E    G_5 D_5   
     e( 18 - 18) =     18.75241  eV     1   --> A_1  G_1 D_1   
     e( 19 - 19) =     21.92512  eV     1   --> B_1  G_3 D_2   
     e( 20 - 21) =     22.32204  eV     2   --> E    G_5 D_5   
     e( 22 - 22) =     23.81920  eV     1   --> B_2  G_4 D_2'  
     e( 23 - 24) =     24.89873  eV     2   --> E    G_5 D_5   
     e( 25 - 25) =     25.27449  eV     1   --> A_1  G_1 D_1   
     e( 26 - 26) =     26.11912  eV     1   --> B_1  G_3 D_2   
     e( 27 - 27) =     27.72209  eV     1   --> A_1  G_1 D_1   
     e( 28 - 29) =     28.22655  eV     2   --> E    G_5 D_5   
     e( 30 - 31) =     28.32093  eV     2   --> E    G_5 D_5   
     e( 32 - 32) =     28.41515  eV     1   --> B_2  G_4 D_2'  

 **************************************************************************

 **************************************************************************

                    xk=(   0.00000,   0.14142,   0.00000  )

     Band symmetry, C_4v (4mm)  point group:

     e(  1 -  1) =     -5.70518  eV     1   --> A_1  G_1 D_1   
     e(  2 -  2) =      3.09433  eV     1   --> A_1  G_1 D_1   
     e(  3 -  4) =      3.20141  eV     2   --> E    G_5 D_5   
     e(  5 -  5) =      6.74824  eV     1   --> A_1  G_1 D_1   
     e(  6 -  6) =      6.89451  eV     1   --> B_2  G_4 D_2'  
     e(  7 -  8) =      7.32080  eV     2   --> E    G_5 D_5   
     e(  9 -  9) =      7.84987  eV     1   --> A_1  G_1 D_1   
     e( 10 - 11) =      9.18713  eV     2   --> E    G_5 D_5   
     e( 12 - 12) =     11.20510  eV     1   --> B_1  G_3 D_2   
     e( 13 - 13) =     12.47487  eV     1   --> A_1  G_1 D_1   
     e( 14 - 14) =     13.05496  eV     1   --> B_2  G_4 D_2'  
     e( 15 - 15) =     17.30242  eV     1   --> A_1  G_1 D_1   
     e( 16 - 17) =     18.29043  eV     2   --> E    G_5 D_5   
     e( 18 - 18) =     18.62003  eV     1   --> A_1  G_1 D_1   
     e( 19 - 19) =     21.40651  eV     1   --> B_1  G_3 D_2   
     e( 20 - 21) =     22.15637  eV     2   --> E    G_5 D_5   
     e( 22 - 22) =     23.86471  eV     1   --> B_2  G_4 D_2'  
     e( 23 - 24) =     25.40271  eV     2   --> E    G_5 D_5   
     e( 25 - 25) =     25.48777  eV     1   --> A_1  G_1 D_1   
     e( 26 - 26) =     26.70575  eV     1   --> B_1  G_3 D_2   
     e( 27 - 27) =     27.24333  eV     1   --> A_1  G_1 D_1   
     e( 28 - 29) =     27.78737  eV     2   --> E    G_5 D_5   
     e( 30 - 30) =     28.06949  eV     1   --> B_2  G_4 D_2'  
     e( 31 - 32) =     28.24916  eV     2   --> E    G_5 D_5   

 **************************************************************************

 **************************************************************************

                    xk=(   0.00000,   0.17678,   0.00000  )

     Band symmetry, C_4v (4mm)  point group:

     e(  1 -  1) =     -5.66834  eV     1   --> A_1  G_1 D_1   
     e(  2 -  2) =      2.89516  eV     1   --> A_1  G_1 D_1   
     e(  3 -  4) =      3.05044  eV     2   --> E    G_5 D_5   
     e(  5 -  5) =      6.90215  eV     1   --> B_2  G_4 D_2'  
     e(  6 -  6) =      6.91058  eV     1   --> A_1  G_1 D_1   
     e(  7 -  8) =      7.52171  eV     2   --> E    G_5 D_5   
     e(  9 -  9) =      7.59351  eV     1   --> A_1  G_1 D_1   
     e( 10 - 11) =      9.36632  eV     2   --> E    G_5 D_5   
     e( 12 - 12) =     11.27736  eV     1   --> B_1  G_3 D_2   
     e( 13 - 13) =     13.00173  eV     1   --> A_1  G_1 D_1   
     e( 14 - 14) =     13.11742  eV     1   --> B_2  G_4 D_2'  
     e( 15 - 15) =     17.32921  eV     1   --> A_1  G_1 D_1   
     e( 16 - 17) =     17.95148  eV     2   --> E    G_5 D_5   
     e( 18 - 18) =     18.46825  eV     1   --> A_1  G_1 D_1   
     e( 19 - 19) =     20.88044  eV     1   --> B_1  G_3 D_2   
     e( 20 - 21) =     22.05603  eV     2   --> E    G_5 D_5   
     e( 22 - 22) =     23.92316  eV     1   --> B_2  G_4 D_2'  
     e( 23 - 23) =     25.72180  eV     1   --> A_1  G_1 D_1   
     e( 24 - 25) =     25.87747  eV     2   --> E    G_5 D_5   
     e( 26 - 26) =     26.72053  eV     1   --> A_1  G_1 D_1   
     e( 27 - 28) =     27.27975  eV     2   --> E    G_5 D_5   
     e( 29 - 29) =     27.31604  eV     1   --> B_1  G_3 D_2   
     e( 30 - 30) =     27.65647  eV     1   --> B_2  G_4 D_2'  
     e( 31 - 32) =     28.18545  eV     2   --> E    G_5 D_5   

 **************************************************************************

 **************************************************************************

                    xk=(   0.00000,   0.21213,   0.00000  )

     Band symmetry, C_4v (4mm)  point group:

     e(  1 -  1) =     -5.62416  eV     1   --> A_1  G_1 D_1   
     e(  2 -  2) =      2.68089  eV     1   --> A_1  G_1 D_1   
     e(  3 -  4) =      2.89062  eV     2   --> E    G_5 D_5   
     e(  5 -  5) =      6.85390  eV     1   --> A_1  G_1 D_1   
     e(  6 -  6) =      6.91102  eV     1   --> B_2  G_4 D_2'  
     e(  7 -  7) =      7.60116  eV     1   --> A_1  G_1 D_1   
     e(  8 -  9) =      7.73571  eV     2   --> E    G_5 D_5   
     e( 10 - 11) =      9.59164  eV     2   --> E    G_5 D_5   
     e( 12 - 12) =     11.36564  eV     1   --> B_1  G_3 D_2   
     e( 13 - 13) =     13.19286  eV     1   --> B_2  G_4 D_2'  
     e( 14 - 14) =     13.53494  eV     1   --> A_1  G_1 D_1   
     e( 15 - 15) =     17.36872  eV     1   --> A_1  G_1 D_1   
     e( 16 - 17) =     17.56778  eV     2   --> E    G_5 D_5   
     e( 18 - 18) =     18.30994  eV     1   --> A_1  G_1 D_1   
     e( 19 - 19) =     20.35689  eV     1   --> B_1  G_3 D_2   
     e( 20 - 21) =     22.01252  eV     2   --> E    G_5 D_5   
     e( 22 - 22) =     23.99448  eV     1   --> B_2  G_4 D_2'  
     e( 23 - 23) =     25.79612  eV     1   --> A_1  G_1 D_1   
     e( 24 - 25) =     26.21629  eV     2   --> E    G_5 D_5   
     e( 26 - 26) =     26.35158  eV     1   --> A_1  G_1 D_1   
     e( 27 - 28) =     26.77951  eV     2   --> E    G_5 D_5   
     e( 29 - 29) =     27.19527  eV     1   --> B_2  G_4 D_2'  
     e( 30 - 30) =     27.93704  eV     1   --> B_1  G_3 D_2   
     e( 31 - 32) =     28.15344  eV     2   --> E    G_5 D_5   

 **************************************************************************

 **************************************************************************

                    xk=(   0.00000,   0.24749,   0.00000  )

     Band symmetry, C_4v (4mm)  point group:

     e(  1 -  1) =     -5.57322  eV     1   --> A_1  G_1 D_1   
     e(  2 -  2) =      2.45752  eV     1   --> A_1  G_1 D_1   
     e(  3 -  4) =      2.72827  eV     2   --> E    G_5 D_5   
     e(  5 -  5) =      6.60678  eV     1   --> A_1  G_1 D_1   
     e(  6 -  6) =      6.92087  eV     1   --> B_2  G_4 D_2'  
     e(  7 -  7) =      7.84505  eV     1   --> A_1  G_1 D_1   
     e(  8 -  9) =      7.95544  eV     2   --> E    G_5 D_5   
     e( 10 - 11) =      9.86378  eV     2   --> E    G_5 D_5   
     e( 12 - 12) =     11.46991  eV     1   --> B_1  G_3 D_2   
     e( 13 - 13) =     13.28062  eV     1   --> B_2  G_4 D_2'  
     e( 14 - 14) =     14.05371  eV     1   --> A_1  G_1 D_1   
     e( 15 - 16) =     17.15366  eV     2   --> E    G_5 D_5   
     e( 17 - 17) =     17.41875  eV     1   --> A_1  G_1 D_1   
     e( 18 - 18) =     18.16678  eV     1   --> A_1  G_1 D_1   
     e( 19 - 19) =     19.84087  eV     1   --> B_1  G_3 D_2   
     e( 20 - 21) =     22.01482  eV     2   --> E    G_5 D_5   
     e( 22 - 22) =     24.07855  eV     1   --> B_2  G_4 D_2'  
     e( 23 - 23) =     25.34124  eV     1   --> A_1  G_1 D_1   
     e( 24 - 25) =     25.93167  eV     2   --> E    G_5 D_5   
     e( 26 - 26) =     26.51687  eV     1   --> A_1  G_1 D_1   
     e( 27 - 27) =     26.70393  eV     1   --> B_2  G_4 D_2'  
     e( 28 - 29) =     26.73143  eV     2   --> E    G_5 D_5   
     e( 30 - 31) =     28.17215  eV     2   --> E    G_5 D_5   
     e( 32 - 32) =     28.55933  eV     1   --> B_1  G_3 D_2   

 **************************************************************************

 **************************************************************************

                    xk=(   0.00000,   0.28284,   0.00000  )

     Band symmetry, C_4v (4mm)  point group:

     e(  1 -  1) =     -5.51621  eV     1   --> A_1  G_1 D_1   
     e(  2 -  2) =      2.22958  eV     1   --> A_1  G_1 D_1   
     e(  3 -  4) =      2.56810  eV     2   --> E    G_5 D_5   
     e(  5 -  5) =      6.32700  eV     1   --> A_1  G_1 D_1   
     e(  6 -  6) =      6.93144  eV     1   --> B_2  G_4 D_2'  
     e(  7 -  7) =      8.16695  eV     1   --> A_1  G_1 D_1   
     e(  8 -  9) =      8.17705  eV     2   --> E    G_5 D_5   
     e( 10 - 11) =     10.18137  eV     2   --> E    G_5 D_5   
     e( 12 - 12) =     11.59014  eV     1   --> B_1  G_3 D_2   
     e( 13 - 13) =     13.37983  eV     1   --> B_2  G_4 D_2'  
     e( 14 - 14) =     14.53324  eV     1   --> A_1  G_1 D_1   
     e( 15 - 16) =     16.72102  eV     2   --> E    G_5 D_5   
     e( 17 - 17) =     17.45349  eV     1   --> A_1  G_1 D_1   
     e( 18 - 18) =     18.08915  eV     1   --> A_1  G_1 D_1   
     e( 19 - 19) =     19.33520  eV     1   --> B_1  G_3 D_2   
     e( 20 - 21) =     22.05155  eV     2   --> E    G_5 D_5   
     e( 22 - 22) =     24.17514  eV     1   --> B_2  G_4 D_2'  
     e( 23 - 23) =     24.74143  eV     1   --> A_1  G_1 D_1   
     e( 24 - 25) =     25.30306  eV     2   --> E    G_5 D_5   
     e( 26 - 26) =     26.19810  eV     1   --> B_2  G_4 D_2'  
     e( 27 - 27) =     26.83841  eV     1   -->   ?
     e( 28 - 29) =     26.83948  eV     2   -->   ?
     e( 30 - 31) =     28.20964  eV     2   --> E    G_5 D_5   
     e( 32 - 32) =     29.17281  eV     1   --> B_1  G_3 D_2   

 **************************************************************************

 **************************************************************************

                    xk=(   0.00000,   0.31820,   0.00000  )

     Band symmetry, C_4v (4mm)  point group:

     e(  1 -  1) =     -5.45401  eV     1   --> A_1  G_1 D_1   
     e(  2 -  2) =      2.00079  eV     1   --> A_1  G_1 D_1   
     e(  3 -  4) =      2.41362  eV     2   --> E    G_5 D_5   
     e(  5 -  5) =      6.05726  eV     1   --> A_1  G_1 D_1   
     e(  6 -  6) =      6.94243  eV     1   --> B_2  G_4 D_2'  
     e(  7 -  8) =      8.39961  eV     2   --> E    G_5 D_5   
     e(  9 -  9) =      8.52311  eV     1   --> A_1  G_1 D_1   
     e( 10 - 11) =     10.54125  eV     2   --> E    G_5 D_5   
     e( 12 - 12) =     11.72627  eV     1   --> B_1  G_3 D_2   
     e( 13 - 13) =     13.48931  eV     1   --> B_2  G_4 D_2'  
     e( 14 - 14) =     14.94438  eV     1   --> A_1  G_1 D_1   
     e( 15 - 16) =     16.27901  eV     2   --> E    G_5 D_5   
     e( 17 - 17) =     17.41286  eV     1   --> A_1  G_1 D_1   
     e( 18 - 18) =     18.16560  eV     1   --> A_1  G_1 D_1   
     e( 19 - 19) =     18.84164  eV     1   --> B_1  G_3 D_2   
     e( 20 - 21) =     22.10977  eV     2   --> E    G_5 D_5   
     e( 22 - 22) =     24.12820  eV     1   --> A_1  G_1 D_1   
     e( 23 - 23) =     24.28368  eV     1   --> B_2  G_4 D_2'  
     e( 24 - 25) =     24.63335  eV     2   --> E    G_5 D_5   
     e( 26 - 26) =     25.69098  eV     1   --> B_2  G_4 D_2'  
     e( 27 - 28) =     26.85089  eV     2   --> E    G_5 D_5   
     e( 29 - 29) =     27.18802  eV     1   --> A_1  G_1 D_1   
     e( 30 - 31) =     28.17959  eV     2   --> E    G_5 D_5   
     e( 32 - 32) =     29.71182  eV     1   --> B_2  G_4 D_2'  

 **************************************************************************

 **************************************************************************

                    xk=(   0.00000,   0.35355,   0.00000  )

     Band symmetry, C_4v (4mm)  point group:

     e(  1 -  1) =     -5.38769  eV     1   --> A_1  G_1 D_1   
     e(  2 -  2) =      1.77451  eV     1   --> A_1  G_1 D_1   
     e(  3 -  4) =      2.26739  eV     2   --> E    G_5 D_5   
     e(  5 -  5) =      5.80825  eV     1   --> A_1  G_1 D_1   
     e(  6 -  6) =      6.95356  eV     1   --> B_2  G_4 D_2'  
     e(  7 -  8) =      8.62397  eV     2   --> E    G_5 D_5   
     e(  9 -  9) =      8.90133  eV     1   --> A_1  G_1 D_1   
     e( 10 - 11) =     10.93912  eV     2   --> E    G_5 D_5   
     e( 12 - 12) =     11.87822  eV     1   --> B_1  G_3 D_2   
     e( 13 - 13) =     13.60752  eV     1   --> B_2  G_4 D_2'  
     e( 14 - 14) =     15.26033  eV     1   --> A_1  G_1 D_1   
     e( 15 - 16) =     15.83453  eV     2   --> E    G_5 D_5   
     e( 17 - 17) =     17.29218  eV     1   --> A_1  G_1 D_1   
     e( 18 - 18) =     18.36136  eV     1   --> B_1  G_3 D_2   
     e( 19 - 19) =     18.42552  eV     1   --> A_1  G_1 D_1   
     e( 20 - 21) =     22.16761  eV     2   --> E    G_5 D_5   
     e( 22 - 22) =     23.52693  eV     1   --> A_1  G_1 D_1   
     e( 23 - 24) =     23.97224  eV     2   --> E    G_5 D_5   
     e( 25 - 25) =     24.40199  eV     1   --> B_2  G_4 D_2'  
     e( 26 - 26) =     25.19504  eV     1   --> B_2  G_4 D_2'  
     e( 27 - 28) =     26.79871  eV     2   --> E    G_5 D_5   
     e( 29 - 29) =     27.54158  eV     1   --> A_1  G_1 D_1   
     e( 30 - 31) =     28.04593  eV     2   --> E    G_5 D_5   
     e( 32 - 32) =     29.39396  eV     1   --> B_2  G_4 D_2'  

 **************************************************************************

 **************************************************************************

                    xk=(   0.00000,   0.38891,   0.00000  )

     Band symmetry, C_4v (4mm)  point group:

     e(  1 -  1) =     -5.31852  eV     1   --> A_1  G_1 D_1   
     e(  2 -  2) =      1.55400  eV     1   --> A_1  G_1 D_1   
     e(  3 -  4) =      2.13135  eV     2   --> E    G_5 D_5   
     e(  5 -  5) =      5.58343  eV     1   --> A_1  G_1 D_1   
     e(  6 -  6) =      6.96456  eV     1   --> B_2  G_4 D_2'  
     e(  7 -  8) =      8.85172  eV     2   --> E    G_5 D_5   
     e(  9 -  9) =      9.29607  eV     1   --> A_1  G_1 D_1   
     e( 10 - 11) =     11.37033  eV     2   --> E    G_5 D_5   
     e( 12 - 12) =     12.04589  eV     1   --> B_1  G_3 D_2   
     e( 13 - 13) =     13.73251  eV     1   --> B_2  G_4 D_2'  
     e( 14 - 15) =     15.39280  eV     2   --> E    G_5 D_5   
     e( 16 - 16) =     15.46781  eV     1   --> A_1  G_1 D_1   
     e( 17 - 17) =     17.14036  eV     1   --> A_1  G_1 D_1   
     e( 18 - 18) =     17.89524  eV     1   --> B_1  G_3 D_2   
     e( 19 - 19) =     18.82864  eV     1   --> A_1  G_1 D_1   
     e( 20 - 21) =     22.16431  eV     2   --> E    G_5 D_5   
     e( 22 - 22) =     22.95311  eV     1   --> A_1  G_1 D_1   
     e( 23 - 24) =     23.38860  eV     2   --> E    G_5 D_5   
     e( 25 - 25) =     24.50454  eV     1   --> B_2  G_4 D_2'  
     e( 26 - 26) =     24.74429  eV     1   --> B_2  G_4 D_2'  
     e( 27 - 28) =     26.71713  eV     2   --> E    G_5 D_5   
     e( 29 - 30) =     27.83552  eV     2   --> E    G_5 D_5   
     e( 31 - 31) =     27.88254  eV     1   --> A_1  G_1 D_1   
     e( 32 - 32) =     29.07281  eV     1   --> B_2  G_4 D_2'  

 **************************************************************************

 **************************************************************************

                    xk=(   0.00000,   0.42426,   0.00000  )

     Band symmetry, C_4v (4mm)  point group:

     e(  1 -  1) =     -5.24802  eV     1   --> A_1  G_1 D_1   
     e(  2 -  2) =      1.34261  eV     1   --> A_1  G_1 D_1   
     e(  3 -  4) =      2.00694  eV     2   --> E    G_5 D_5   
     e(  5 -  5) =      5.38392  eV     1   --> A_1  G_1 D_1   
     e(  6 -  6) =      6.97516  eV     1   --> B_2  G_4 D_2'  
     e(  7 -  8) =      9.08431  eV     2   --> E    G_5 D_5   
     e(  9 -  9) =      9.70359  eV     1   --> A_1  G_1 D_1   
     e( 10 - 11) =     11.83036  eV     2   --> E    G_5 D_5   
     e( 12 - 12) =     12.22909  eV     1   --> B_1  G_3 D_2   
     e( 13 - 13) =     13.86181  eV     1   --> B_2  G_4 D_2'  
     e( 14 - 15) =     14.95797  eV     2   --> E    G_5 D_5   
     e( 16 - 16) =     15.56952  eV     1   --> A_1  G_1 D_1   
     e( 17 - 17) =     16.98917  eV     1   --> A_1  G_1 D_1   
     e( 18 - 18) =     17.44402  eV     1   --> B_1  G_3 D_2   
     e( 19 - 19) =     19.33041  eV     1   --> A_1  G_1 D_1   
     e( 20 - 21) =     21.93323  eV     2   --> E    G_5 D_5   
     e( 22 - 22) =     22.42416  eV     1   --> A_1  G_1 D_1   
     e( 23 - 24) =     23.05330  eV     2   --> E    G_5 D_5   
     e( 25 - 25) =     24.22190  eV     1   --> B_2  G_4 D_2'  
     e( 26 - 26) =     24.71551  eV     1   --> B_2  G_4 D_2'  
     e( 27 - 28) =     26.62519  eV     2   --> E    G_5 D_5   
     e( 29 - 30) =     27.57998  eV     2   --> E    G_5 D_5   
     e( 31 - 31) =     28.18625  eV     1   --> A_1  G_1 D_1   
     e( 32 - 32) =     28.75205  eV     1   --> B_2  G_4 D_2'  

 **************************************************************************

 **************************************************************************

                    xk=(   0.00000,   0.45962,   0.00000  )

     Band symmetry, C_4v (4mm)  point group:

     e(  1 -  1) =     -5.17795  eV     1   --> A_1  G_1 D_1   
     e(  2 -  2) =      1.14380  eV     1   --> A_1  G_1 D_1   
     e(  3 -  4) =      1.89525  eV     2   --> E    G_5 D_5   
     e(  5 -  5) =      5.20983  eV     1   --> A_1  G_1 D_1   
     e(  6 -  6) =      6.98512  eV     1   --> B_2  G_4 D_2'  
     e(  7 -  8) =      9.32263  eV     2   --> E    G_5 D_5   
     e(  9 -  9) =     10.12039  eV     1   --> A_1  G_1 D_1   
     e( 10 - 11) =     12.31489  eV     2   --> E    G_5 D_5   
     e( 12 - 12) =     12.42758  eV     1   --> B_1  G_3 D_2   
     e( 13 - 13) =     13.99235  eV     1   --> B_2  G_4 D_2'  
     e( 14 - 15) =     14.53362  eV     2   --> E    G_5 D_5   
     e( 16 - 16) =     15.57504  eV     1   --> A_1  G_1 D_1   
     e( 17 - 17) =     16.85674  eV     1   --> A_1  G_1 D_1   
     e( 18 - 18) =     17.00835  eV     1   --> B_1  G_3 D_2   
     e( 19 - 19) =     19.87682  eV     1   --> A_1  G_1 D_1   
     e( 20 - 21) =     21.41334  eV     2   --> E    G_5 D_5   
     e( 22 - 22) =     21.97229  eV     1   --> A_1  G_1 D_1   
     e( 23 - 24) =     23.03000  eV     2   --> E    G_5 D_5   
     e( 25 - 25) =     23.80329  eV     1   --> B_2  G_4 D_2'  
     e( 26 - 26) =     24.86606  eV     1   --> B_2  G_4 D_2'  
     e( 27 - 28) =     26.53289  eV     2   --> E    G_5 D_5   
     e( 29 - 30) =     27.29957  eV     2   --> E    G_5 D_5   
     e( 31 - 31) =     28.39435  eV     1   --> A_1  G_1 D_1   
     e( 32 - 32) =     28.43461  eV     1   --> B_2  G_4 D_2'  

 **************************************************************************

 **************************************************************************

                    xk=(   0.00000,   0.49497,   0.00000  )

     Band symmetry, C_4v (4mm)  point group:

     e(  1 -  1) =     -5.11030  eV     1   --> A_1  G_1 D_1   
     e(  2 -  2) =      0.96114  eV     1   --> A_1  G_1 D_1   
     e(  3 -  4) =      1.79713  eV     2   --> E    G_5 D_5   
     e(  5 -  5) =      5.06079  eV     1   --> A_1  G_1 D_1   
     e(  6 -  6) =      6.99420  eV     1   --> B_2  G_4 D_2'  
     e(  7 -  8) =      9.56658  eV     2   --> E    G_5 D_5   
     e(  9 -  9) =     10.54250  eV     1   --> A_1  G_1 D_1   
     e( 10 - 10) =     12.64091  eV     1   --> B_1  G_3 D_2   
     e( 11 - 12) =     12.81951  eV     2   --> E    G_5 D_5   
     e( 13 - 13) =     14.12042  eV     1   --> B_2  G_4 D_2'  
     e( 14 - 15) =     14.12330  eV     2   --> E    G_5 D_5   
     e( 16 - 16) =     15.49455  eV     1   --> A_1  G_1 D_1   
     e( 17 - 17) =     16.58897  eV     1   --> B_1  G_3 D_2   
     e( 18 - 18) =     16.75381  eV     1   --> A_1  G_1 D_1   
     e( 19 - 19) =     20.35342  eV     1   --> A_1  G_1 D_1   
     e( 20 - 21) =     20.77869  eV     2   --> E    G_5 D_5   
     e( 22 - 22) =     21.69630  eV     1   --> A_1  G_1 D_1   
     e( 23 - 24) =     23.14643  eV     2   --> E    G_5 D_5   
     e( 25 - 25) =     23.41519  eV     1   --> B_2  G_4 D_2'  
     e( 26 - 26) =     25.03564  eV     1   --> B_2  G_4 D_2'  
     e( 27 - 28) =     26.44539  eV     2   --> E    G_5 D_5   
     e( 29 - 30) =     27.00775  eV     2   --> E    G_5 D_5   
     e( 31 - 31) =     28.12294  eV     1   --> B_2  G_4 D_2'  
     e( 32 - 32) =     28.39403  eV     1   --> A_1  G_1 D_1   

 **************************************************************************

 **************************************************************************

                    xk=(   0.00000,   0.53033,   0.00000  )

     Band symmetry, C_4v (4mm)  point group:

     e(  1 -  1) =     -5.04730  eV     1   --> A_1  G_1 D_1   
     e(  2 -  2) =      0.79827  eV     1   --> A_1  G_1 D_1   
     e(  3 -  4) =      1.71321  eV     2   --> E    G_5 D_5   
     e(  5 -  5) =      4.93618  eV     1   --> A_1  G_1 D_1   
     e(  6 -  6) =      7.00222  eV     1   --> B_2  G_4 D_2'  
     e(  7 -  8) =      9.81468  eV     2   --> E    G_5 D_5   
     e(  9 -  9) =     10.96464  eV     1   --> A_1  G_1 D_1   
     e( 10 - 10) =     12.86833  eV     1   --> B_1  G_3 D_2   
     e( 11 - 12) =     13.33850  eV     2   --> E    G_5 D_5   
     e( 13 - 14) =     13.73182  eV     2   --> E    G_5 D_5   
     e( 15 - 15) =     14.24169  eV     1   --> B_2  G_4 D_2'  
     e( 16 - 16) =     15.34088  eV     1   --> A_1  G_1 D_1   
     e( 17 - 17) =     16.18687  eV     1   --> B_1  G_3 D_2   
     e( 18 - 18) =     16.68235  eV     1   --> A_1  G_1 D_1   
     e( 19 - 20) =     20.12000  eV     2   --> E    G_5 D_5   
     e( 21 - 21) =     20.49458  eV     1   --> A_1  G_1 D_1   
     e( 22 - 22) =     21.85245  eV     1   --> A_1  G_1 D_1   
     e( 23 - 23) =     23.06978  eV     1   --> B_2  G_4 D_2'  
     e( 24 - 25) =     23.31323  eV     2   --> E    G_5 D_5   
     e( 26 - 26) =     25.21798  eV     1   --> B_2  G_4 D_2'  
     e( 27 - 28) =     26.36394  eV     2   --> E    G_5 D_5   
     e( 29 - 30) =     26.71681  eV     2   --> E    G_5 D_5   
     e( 31 - 31) =     27.81923  eV     1   --> B_2  G_4 D_2'  
     e( 32 - 32) =     28.16122  eV     1   --> A_1  G_1 D_1   

 **************************************************************************

 **************************************************************************

                    xk=(   0.00000,   0.56569,   0.00000  )

     Band symmetry, C_4v (4mm)  point group:

     e(  1 -  1) =     -4.99128  eV     1   --> A_1  G_1 D_1   
     e(  2 -  2) =      0.65878  eV     1   --> A_1  G_1 D_1   
     e(  3 -  4) =      1.64397  eV     2   --> E    G_5 D_5   
     e(  5 -  5) =      4.83536  eV     1   --> A_1  G_1 D_1   
     e(  6 -  6) =      7.00901  eV     1   --> B_2  G_4 D_2'  
     e(  7 -  8) =     10.06316  eV     2   --> E    G_5 D_5   
     e(  9 -  9) =     11.37897  eV     1   --> A_1  G_1 D_1   
     e( 10 - 10) =     13.10837  eV     1   --> B_1  G_3 D_2   
     e( 11 - 12) =     13.36046  eV     2   --> E    G_5 D_5   
     e( 13 - 14) =     13.86926  eV     2   --> E    G_5 D_5   
     e( 15 - 15) =     14.35125  eV     1   --> B_2  G_4 D_2'  
     e( 16 - 16) =     15.13175  eV     1   --> A_1  G_1 D_1   
     e( 17 - 17) =     15.80369  eV     1   --> B_1  G_3 D_2   
     e( 18 - 18) =     16.63677  eV     1   --> A_1  G_1 D_1   
     e( 19 - 20) =     19.46864  eV     2   --> E    G_5 D_5   
     e( 21 - 21) =     20.32792  eV     1   --> A_1  G_1 D_1   
     e( 22 - 22) =     22.40770  eV     1   --> A_1  G_1 D_1   
     e( 23 - 23) =     22.77454  eV     1   --> B_2  G_4 D_2'  
     e( 24 - 25) =     23.50048  eV     2   --> E    G_5 D_5   
     e( 26 - 26) =     25.41097  eV     1   --> B_2  G_4 D_2'  
     e( 27 - 28) =     26.27720  eV     2   --> E    G_5 D_5   
     e( 29 - 30) =     26.45030  eV     2   --> E    G_5 D_5   
     e( 31 - 31) =     27.52584  eV     1   --> B_2  G_4 D_2'  
     e( 32 - 32) =     27.77198  eV     1   --> A_1  G_1 D_1   

 **************************************************************************

 **************************************************************************

                    xk=(   0.00000,   0.60104,   0.00000  )

     Band symmetry, C_4v (4mm)  point group:

     e(  1 -  1) =     -4.94460  eV     1   --> A_1  G_1 D_1   
     e(  2 -  2) =      0.54606  eV     1   --> A_1  G_1 D_1   
     e(  3 -  4) =      1.58977  eV     2   --> E    G_5 D_5   
     e(  5 -  5) =      4.75768  eV     1   --> A_1  G_1 D_1   
     e(  6 -  6) =      7.01442  eV     1   --> B_2  G_4 D_2'  
     e(  7 -  8) =     10.30407  eV     2   --> E    G_5 D_5   
     e(  9 -  9) =     11.77255  eV     1   --> A_1  G_1 D_1   
     e( 10 - 11) =     13.02538  eV     2   --> E    G_5 D_5   
     e( 12 - 12) =     13.35789  eV     1   --> B_1  G_3 D_2   
     e( 13 - 14) =     14.39284  eV     2   --> E    G_5 D_5   
     e( 15 - 15) =     14.44393  eV     1   --> B_2  G_4 D_2'  
     e( 16 - 16) =     14.88936  eV     1   --> A_1  G_1 D_1   
     e( 17 - 17) =     15.44272  eV     1   --> B_1  G_3 D_2   
     e( 18 - 18) =     16.60925  eV     1   --> A_1  G_1 D_1   
     e( 19 - 20) =     18.84492  eV     2   --> E    G_5 D_5   
     e( 21 - 21) =     20.11368  eV     1   --> A_1  G_1 D_1   
     e( 22 - 22) =     22.53617  eV     1   --> B_2  G_4 D_2'  
     e( 23 - 23) =     23.09772  eV     1   --> A_1  G_1 D_1   
     e( 24 - 25) =     23.69088  eV     2   --> E    G_5 D_5   
     e( 26 - 26) =     25.61187  eV     1   --> B_2  G_4 D_2'  
     e( 27 - 28) =     26.10959  eV     2   --> E    G_5 D_5   
     e( 29 - 30) =     26.29768  eV     2   --> E    G_5 D_5   
     e( 31 - 31) =     27.24612  eV     1   --> B_2  G_4 D_2'  
     e( 32 - 32) =     27.26875  eV     1   --> A_1  G_1 D_1   

 **************************************************************************

 **************************************************************************

                    xk=(   0.00000,   0.63640,   0.00000  )

     Band symmetry, C_4v (4mm)  point group:

     e(  1 -  1) =     -4.90941  eV     1   --> A_1  G_1 D_1   
     e(  2 -  2) =      0.46311  eV     1   --> A_1  G_1 D_1   
     e(  3 -  4) =      1.55088  eV     2   --> E    G_5 D_5   
     e(  5 -  5) =      4.70260  eV     1   --> A_1  G_1 D_1   
     e(  6 -  6) =      7.01837  eV     1   --> B_2  G_4 D_2'  
     e(  7 -  8) =     10.52127  eV     2   --> E    G_5 D_5   
     e(  9 -  9) =     12.12182  eV     1   --> A_1  G_1 D_1   
     e( 10 - 11) =     12.73992  eV     2   --> E    G_5 D_5   
     e( 12 - 12) =     13.60873  eV     1   --> B_1  G_3 D_2   
     e( 13 - 13) =     14.51465  eV     1   --> B_2  G_4 D_2'  
     e( 14 - 14) =     14.64397  eV     1   --> A_1  G_1 D_1   
     e( 15 - 16) =     14.88722  eV     2   --> E    G_5 D_5   
     e( 17 - 17) =     15.11222  eV     1   --> B_1  G_3 D_2   
     e( 18 - 18) =     16.59347  eV     1   --> A_1  G_1 D_1   
     e( 19 - 20) =     18.27799  eV     2   --> E    G_5 D_5   
     e( 21 - 21) =     19.93973  eV     1   --> A_1  G_1 D_1   
     e( 22 - 22) =     22.36074  eV     1   --> B_2  G_4 D_2'  
     e( 23 - 23) =     23.82956  eV     1   --> A_1  G_1 D_1   
     e( 24 - 25) =     23.86529  eV     2   --> E    G_5 D_5   
     e( 26 - 26) =     25.81442  eV     1   --> B_2  G_4 D_2'  
     e( 27 - 28) =     25.89611  eV     2   --> E    G_5 D_5   
     e( 29 - 30) =     26.24317  eV     2   --> E    G_5 D_5   
     e( 31 - 31) =     26.67527  eV     1   --> A_1  G_1 D_1   
     e( 32 - 32) =     26.98688  eV     1   --> B_2  G_4 D_2'  

 **************************************************************************

 **************************************************************************

                    xk=(   0.00000,   0.67175,   0.00000  )

     Band symmetry, C_4v (4mm)  point group:

     e(  1 -  1) =     -4.88752  eV     1   --> A_1  G_1 D_1   
     e(  2 -  2) =      0.41231  eV     1   --> A_1  G_1 D_1   
     e(  3 -  4) =      1.52748  eV     2   --> E    G_5 D_5   
     e(  5 -  5) =      4.66973  eV     1   --> A_1  G_1 D_1   
     e(  6 -  6) =      7.02077  eV     1   --> B_2  G_4 D_2'  
     e(  7 -  8) =     10.68389  eV     2   --> E    G_5 D_5   
     e(  9 -  9) =     12.38198  eV     1   --> A_1  G_1 D_1   
     e( 10 - 11) =     12.53606  eV     2   --> E    G_5 D_5   
     e( 12 - 12) =     13.83450  eV     1   --> B_1  G_3 D_2   
     e( 13 - 13) =     14.44456  eV     1   --> A_1  G_1 D_1   
     e( 14 - 14) =     14.55906  eV     1   --> B_2  G_4 D_2'  
     e( 15 - 15) =     14.83861  eV     1   --> B_1  G_3 D_2   
     e( 16 - 17) =     15.28853  eV     2   --> E    G_5 D_5   
     e( 18 - 18) =     16.58542  eV     1   --> A_1  G_1 D_1   
     e( 19 - 20) =     17.83274  eV     2   --> E    G_5 D_5   
     e( 21 - 21) =     19.83014  eV     1   --> A_1  G_1 D_1   
     e( 22 - 22) =     22.25325  eV     1   --> B_2  G_4 D_2'  
     e( 23 - 24) =     23.99534  eV     2   --> E    G_5 D_5   
     e( 25 - 25) =     24.57154  eV     1   --> A_1  G_1 D_1   
     e( 26 - 27) =     25.73629  eV     2   --> E    G_5 D_5   
     e( 28 - 28) =     25.99837  eV     1   --> B_2  G_4 D_2'  
     e( 29 - 29) =     26.01420  eV     1   --> A_1  G_1 D_1   
     e( 30 - 31) =     26.21636  eV     2   --> E    G_5 D_5   
     e( 32 - 32) =     26.76876  eV     1   --> B_2  G_4 D_2'  

 **************************************************************************

 **************************************************************************

                    xk=(   0.00000,   0.70711,   0.00000  )

     point group D_4h(4/mmm)
     there are 10 classes
     the character table:

       E     2C4   C2    2C2'  2C2'' i     2S4   s_h   2s_v  2s_d 
A_1g   1.00  1.00  1.00  1.00  1.00  1.00  1.00  1.00  1.00  1.00
A_2g   1.00  1.00  1.00 -1.00 -1.00  1.00  1.00  1.00 -1.00 -1.00
B_1g   1.00 -1.00  1.00  1.00 -1.00  1.00 -1.00  1.00  1.00 -1.00
B_2g   1.00 -1.00  1.00 -1.00  1.00  1.00 -1.00  1.00 -1.00  1.00
E_g    2.00  0.00 -2.00  0.00  0.00  2.00  0.00 -2.00  0.00  0.00
A_1u   1.00  1.00  1.00  1.00  1.00 -1.00 -1.00 -1.00 -1.00 -1.00
A_2u   1.00  1.00  1.00 -1.00 -1.00 -1.00 -1.00 -1.00  1.00  1.00
B_1u   1.00 -1.00  1.00  1.00 -1.00 -1.00  1.00 -1.00 -1.00  1.00
B_2u   1.00 -1.00  1.00 -1.00  1.00 -1.00  1.00 -1.00  1.00 -1.00
E_u    2.00  0.00 -2.00  0.00  0.00 -2.00  0.00  2.00  0.00  0.00

     the symmetry operations in each class and the name of the first element:

     E        1
                                                                 
     2C4      7    8
                                                                 
     C2       3
                                                                 
     2C2'     2    4
                                                                 
     2C2''    5    6
                                                                 
     i        9
                                                                 
     2S4     15   16
                                                                 
     s_h     11
                                                                 
     2s_v    10   12
                                                                 
     2s_d    13   14
                                                                 

     Band symmetry, D_4h(4/mmm) point group:

     e(  1 -  1) =     -4.88008  eV     1   --> A_1g X_1  M_1  
     e(  2 -  2) =      0.39520  eV     1   --> A_2u X_4' M_4' 
     e(  3 -  4) =      1.51967  eV     2   --> E_u  X_5' M_5' 
     e(  5 -  5) =      4.65880  eV     1   --> A_1g X_1  M_1  
     e(  6 -  6) =      7.02157  eV     1   --> B_2g X_3  M_3  
     e(  7 -  8) =     10.74679  eV     2   --> E_u  X_5' M_5' 
     e(  9 - 10) =     12.45936  eV     2   --> E_g  X_5  M_5  
     e( 11 - 11) =     12.48308  eV     1   --> A_2u X_4' M_4' 
     e( 12 - 12) =     13.94429  eV     1   --> B_1g X_2  M_2  
     e( 13 - 13) =     14.36346  eV     1   --> A_1g X_1  M_1  
     e( 14 - 14) =     14.57422  eV     1   --> B_1u X_2' M_2' 
     e( 15 - 15) =     14.71287  eV     1   --> B_2u X_3' M_3' 
     e( 16 - 17) =     15.45857  eV     2   --> E_u  X_5' M_5' 
     e( 18 - 18) =     16.58296  eV     1   --> A_2u X_4' M_4' 
     e( 19 - 20) =     17.64799  eV     2   --> E_g  X_5  M_5  
     e( 21 - 21) =     19.79294  eV     1   --> A_1g X_1  M_1  
     e( 22 - 22) =     22.21703  eV     1   --> B_2g X_3  M_3  
     e( 23 - 24) =     24.04508  eV     2   --> E_u  X_5' M_5' 
     e( 25 - 25) =     25.27291  eV     1   --> A_2u X_4' M_4' 
     e( 26 - 26) =     25.33914  eV     1   --> A_1g X_1  M_1  
     e( 27 - 28) =     25.67616  eV     2   --> E_g  X_5  M_5  
     e( 29 - 29) =     26.08951  eV     1   --> B_1u X_2' M_2' 
     e( 30 - 31) =     26.20781  eV     2   --> E_u  X_5' M_5' 
     e( 32 - 32) =     26.66620  eV     1   --> B_2g X_3  M_3  

 **************************************************************************

 **************************************************************************

                    xk=(   0.01768,   0.70711,   0.00000  )

     point group C_2v (mm2) 
     there are  4 classes
     the character table:

       E     C2    s_v   s_v' 
A_1    1.00  1.00  1.00  1.00
A_2    1.00  1.00 -1.00 -1.00
B_1    1.00 -1.00  1.00 -1.00
B_2    1.00 -1.00 -1.00  1.00

     the symmetry operations in each class and the name of the first element:

     E        1
                                                                 
     C2       2
                                                                 
     s_v      4
                                                                 
     s_v'     3
                                                                 

     Band symmetry, C_2v (mm2)  point group:

     e(  1 -  1) =     -4.88005  eV     1   --> A_1  D_1  S_1  
     e(  2 -  2) =      0.39652  eV     1   --> B_2  D_4  S_4  
     e(  3 -  3) =      1.51725  eV     1   -->   ?
     e(  4 -  4) =      1.51758  eV     1   -->   ?
     e(  5 -  5) =      4.66602  eV     1   --> A_1  D_1  S_1  
     e(  6 -  6) =      7.02726  eV     1   --> B_1  D_3  S_3  
     e(  7 -  7) =     10.72078  eV     1   --> A_1  D_1  S_1  
     e(  8 -  8) =     10.74879  eV     1   --> B_1  D_3  S_3  
     e(  9 -  9) =     12.39025  eV     1   --> B_2  D_4  S_4  
     e( 10 - 10) =     12.46099  eV     1   --> A_2  D_2  S_2  
     e( 11 - 11) =     12.52284  eV     1   --> B_2  D_4  S_4  
     e( 12 - 12) =     13.96269  eV     1   --> A_1  D_1  S_1  
     e( 13 - 13) =     14.37309  eV     1   --> A_1  D_1  S_1  
     e( 14 - 14) =     14.56781  eV     1   --> A_2  D_2  S_2  
     e( 15 - 15) =     14.73748  eV     1   --> B_2  D_4  S_4  
     e( 16 - 16) =     15.45967  eV     1   -->   ?
     e( 17 - 17) =     15.46159  eV     1   -->   ?
     e( 18 - 18) =     16.58265  eV     1   --> B_2  D_4  S_4  
     e( 19 - 19) =     17.65860  eV     1   -->   ?
     e( 20 - 20) =     17.65916  eV     1   -->   ?
     e( 21 - 21) =     19.79221  eV     1   --> A_1  D_1  S_1  
     e( 22 - 22) =     22.21219  eV     1   --> B_1  D_3  S_3  
     e( 23 - 23) =     24.01561  eV     1   --> B_1  D_3  S_3  
     e( 24 - 24) =     24.02779  eV     1   --> A_1  D_1  S_1  
     e( 25 - 25) =     25.26269  eV     1   --> B_2  D_4  S_4  
     e( 26 - 26) =     25.35402  eV     1   --> A_1  D_1  S_1  
     e( 27 - 27) =     25.51937  eV     1   --> A_2  D_2  S_2  
     e( 28 - 28) =     25.68582  eV     1   --> B_2  D_4  S_4  
     e( 29 - 29) =     26.18631  eV     1   --> A_1  D_1  S_1  
     e( 30 - 30) =     26.20567  eV     1   --> B_1  D_3  S_3  
     e( 31 - 31) =     26.24829  eV     1   --> A_2  D_2  S_2  
     e( 32 - 32) =     26.69261  eV     1   --> B_1  D_3  S_3  

 **************************************************************************

 **************************************************************************

                    xk=(   0.03536,   0.70711,   0.00000  )

     Band symmetry, C_2v (mm2)  point group:

     e(  1 -  1) =     -4.87995  eV     1   --> A_1  D_1  S_1  
     e(  2 -  2) =      0.40047  eV     1   --> B_2  D_4  S_4  
     e(  3 -  3) =      1.51001  eV     1   -->   ?
     e(  4 -  4) =      1.51139  eV     1   -->   ?
     e(  5 -  5) =      4.68758  eV     1   --> A_1  D_1  S_1  
     e(  6 -  6) =      7.04429  eV     1   --> B_1  D_3  S_3  
     e(  7 -  7) =     10.64544  eV     1   --> A_1  D_1  S_1  
     e(  8 -  8) =     10.75478  eV     1   --> B_1  D_3  S_3  
     e(  9 -  9) =     12.28165  eV     1   --> B_2  D_4  S_4  
     e( 10 - 10) =     12.46586  eV     1   --> A_2  D_2  S_2  
     e( 11 - 11) =     12.54643  eV     1   --> B_2  D_4  S_4  
     e( 12 - 12) =     14.00944  eV     1   --> A_1  D_1  S_1  
     e( 13 - 13) =     14.40776  eV     1   --> A_1  D_1  S_1  
     e( 14 - 14) =     14.54887  eV     1   --> A_2  D_2  S_2  
     e( 15 - 15) =     14.80810  eV     1   --> B_2  D_4  S_4  
     e( 16 - 16) =     15.46296  eV     1   --> B_1  D_3  S_3  
     e( 17 - 17) =     15.47056  eV     1   --> A_1  D_1  S_1  
     e( 18 - 18) =     16.58222  eV     1   --> B_2  D_4  S_4  
     e( 19 - 19) =     17.69016  eV     1   --> A_2  D_2  S_2  
     e( 20 - 20) =     17.69235  eV     1   --> B_2  D_4  S_4  
     e( 21 - 21) =     19.79002  eV     1   --> A_1  D_1  S_1  
     e( 22 - 22) =     22.19752  eV     1   --> B_1  D_3  S_3  
     e( 23 - 23) =     23.93107  eV     1   --> B_1  D_3  S_3  
     e( 24 - 24) =     23.97841  eV     1   --> A_1  D_1  S_1  
     e( 25 - 25) =     25.23485  eV     1   --> B_2  D_4  S_4  
     e( 26 - 26) =     25.25208  eV     1   --> A_2  D_2  S_2  
     e( 27 - 27) =     25.39601  eV     1   --> A_1  D_1  S_1  
     e( 28 - 28) =     25.71205  eV     1   --> B_2  D_4  S_4  
     e( 29 - 29) =     26.12228  eV     1   --> A_1  D_1  S_1  
     e( 30 - 30) =     26.20065  eV     1   --> B_1  D_3  S_3  
     e( 31 - 31) =     26.52147  eV     1   --> A_2  D_2  S_2  
     e( 32 - 32) =     26.76509  eV     1   --> B_1  D_3  S_3  

 **************************************************************************

 **************************************************************************

                    xk=(   0.05303,   0.70711,   0.00000  )

     Band symmetry, C_2v (mm2)  point group:

     e(  1 -  1) =     -4.87978  eV     1   --> A_1  D_1  S_1  
     e(  2 -  2) =      0.40704  eV     1   --> B_2  D_4  S_4  
     e(  3 -  3) =      1.49807  eV     1   --> B_1  D_3  S_3  
     e(  4 -  4) =      1.50135  eV     1   --> A_1  D_1  S_1  
     e(  5 -  5) =      4.72323  eV     1   --> A_1  D_1  S_1  
     e(  6 -  6) =      7.07253  eV     1   --> B_1  D_3  S_3  
     e(  7 -  7) =     10.52770  eV     1   --> A_1  D_1  S_1  
     e(  8 -  8) =     10.76475  eV     1   --> B_1  D_3  S_3  
     e(  9 -  9) =     12.14668  eV     1   --> B_2  D_4  S_4  
     e( 10 - 10) =     12.47395  eV     1   --> A_2  D_2  S_2  
     e( 11 - 11) =     12.54842  eV     1   --> B_2  D_4  S_4  
     e( 12 - 12) =     14.06187  eV     1   --> A_1  D_1  S_1  
     e( 13 - 13) =     14.48343  eV     1   --> A_1  D_1  S_1  
     e( 14 - 14) =     14.51822  eV     1   --> A_2  D_2  S_2  
     e( 15 - 15) =     14.91649  eV     1   --> B_2  D_4  S_4  
     e( 16 - 16) =     15.46842  eV     1   --> B_1  D_3  S_3  
     e( 17 - 17) =     15.48518  eV     1   --> A_1  D_1  S_1  
     e( 18 - 18) =     16.58312  eV     1   --> B_2  D_4  S_4  
     e( 19 - 19) =     17.74185  eV     1   --> A_2  D_2  S_2  
     e( 20 - 20) =     17.74658  eV     1   --> B_2  D_4  S_4  
     e( 21 - 21) =     19.78634  eV     1   --> A_1  D_1  S_1  
     e( 22 - 22) =     22.17257  eV     1   --> B_1  D_3  S_3  
     e( 23 - 23) =     23.80114  eV     1   --> B_1  D_3  S_3  
     e( 24 - 24) =     23.90295  eV     1   --> A_1  D_1  S_1  
     e( 25 - 25) =     24.96876  eV     1   --> A_2  D_2  S_2  
     e( 26 - 26) =     25.19519  eV     1   --> B_2  D_4  S_4  
     e( 27 - 27) =     25.45859  eV     1   --> A_1  D_1  S_1  
     e( 28 - 28) =     25.74916  eV     1   --> B_2  D_4  S_4  
     e( 29 - 29) =     26.01737  eV     1   --> A_1  D_1  S_1  
     e( 30 - 30) =     26.19492  eV     1   --> B_1  D_3  S_3  
     e( 31 - 31) =     26.81447  eV     1   --> A_2  D_2  S_2  
     e( 32 - 32) =     26.86682  eV     1   --> B_1  D_3  S_3  

 **************************************************************************

 **************************************************************************

                    xk=(   0.07071,   0.70711,  -0.00000  )

     Band symmetry, C_2v (mm2)  point group:

     e(  1 -  1) =     -4.87956  eV     1   --> A_1  D_1  S_1  
     e(  2 -  2) =      0.41621  eV     1   --> B_2  D_4  S_4  
     e(  3 -  3) =      1.48161  eV     1   --> B_1  D_3  S_3  
     e(  4 -  4) =      1.48784  eV     1   --> A_1  D_1  S_1  
     e(  5 -  5) =      4.77257  eV     1   --> A_1  D_1  S_1  
     e(  6 -  6) =      7.11183  eV     1   --> B_1  D_3  S_3  
     e(  7 -  7) =     10.37627  eV     1   --> A_1  D_1  S_1  
     e(  8 -  8) =     10.77869  eV     1   --> B_1  D_3  S_3  
     e(  9 -  9) =     11.99060  eV     1   --> B_2  D_4  S_4  
     e( 10 - 10) =     12.48524  eV     1   --> A_2  D_2  S_2  
     e( 11 - 11) =     12.53298  eV     1   --> B_2  D_4  S_4  
     e( 12 - 12) =     14.09806  eV     1   --> A_1  D_1  S_1  
     e( 13 - 13) =     14.47708  eV     1   --> A_2  D_2  S_2  
     e( 14 - 14) =     14.61350  eV     1   --> A_1  D_1  S_1  
     e( 15 - 15) =     15.05213  eV     1   --> B_2  D_4  S_4  
     e( 16 - 16) =     15.47602  eV     1   --> B_1  D_3  S_3  
     e( 17 - 17) =     15.50498  eV     1   --> A_1  D_1  S_1  
     e( 18 - 18) =     16.58779  eV     1   --> B_2  D_4  S_4  
     e( 19 - 19) =     17.81249  eV     1   --> A_2  D_2  S_2  
     e( 20 - 20) =     17.82051  eV     1   --> B_2  D_4  S_4  
     e( 21 - 21) =     19.78109  eV     1   --> A_1  D_1  S_1  
     e( 22 - 22) =     22.13654  eV     1   --> B_1  D_3  S_3  
     e( 23 - 23) =     23.63743  eV     1   --> B_1  D_3  S_3  
     e( 24 - 24) =     23.80815  eV     1   --> A_1  D_1  S_1  
     e( 25 - 25) =     24.68274  eV     1   --> A_2  D_2  S_2  
     e( 26 - 26) =     25.14894  eV     1   --> B_2  D_4  S_4  
     e( 27 - 27) =     25.53305  eV     1   --> A_1  D_1  S_1  
     e( 28 - 28) =     25.79214  eV     1   --> B_2  D_4  S_4  
     e( 29 - 29) =     25.87581  eV     1   --> A_1  D_1  S_1  
     e( 30 - 30) =     26.18931  eV     1   --> B_1  D_3  S_3  
     e( 31 - 31) =     26.97543  eV     1   --> B_1  D_3  S_3  
     e( 32 - 32) =     27.11376  eV     1   --> A_2  D_2  S_2  

 **************************************************************************

 **************************************************************************

                    xk=(   0.08839,   0.70711,   0.00000  )

     Band symmetry, C_2v (mm2)  point group:

     e(  1 -  1) =     -4.87928  eV     1   --> A_1  D_1  S_1  
     e(  2 -  2) =      0.42796  eV     1   --> B_2  D_4  S_4  
     e(  3 -  3) =      1.46087  eV     1   --> B_1  D_3  S_3  
     e(  4 -  4) =      1.47137  eV     1   --> A_1  D_1  S_1  
     e(  5 -  5) =      4.83507  eV     1   --> A_1  D_1  S_1  
     e(  6 -  6) =      7.16192  eV     1   --> B_1  D_3  S_3  
     e(  7 -  7) =     10.19963  eV     1   --> A_1  D_1  S_1  
     e(  8 -  8) =     10.79658  eV     1   --> B_1  D_3  S_3  
     e(  9 -  9) =     11.81868  eV     1   --> B_2  D_4  S_4  
     e( 10 - 10) =     12.49966  eV     1   --> A_2  D_2  S_2  
     e( 11 - 11) =     12.50371  eV     1   --> B_2  D_4  S_4  
     e( 12 - 12) =     14.11403  eV     1   --> A_1  D_1  S_1  
     e( 13 - 13) =     14.42695  eV     1   --> A_2  D_2  S_2  
     e( 14 - 14) =     14.79372  eV     1   --> A_1  D_1  S_1  
     e( 15 - 15) =     15.20409  eV     1   --> B_2  D_4  S_4  
     e( 16 - 16) =     15.48571  eV     1   --> B_1  D_3  S_3  
     e( 17 - 17) =     15.52944  eV     1   --> A_1  D_1  S_1  
     e( 18 - 18) =     16.59973  eV     1   --> B_2  D_4  S_4  
     e( 19 - 19) =     17.90061  eV     1   --> A_2  D_2  S_2  
     e( 20 - 20) =     17.91262  eV     1   --> B_2  D_4  S_4  
     e( 21 - 21) =     19.77420  eV     1   --> A_1  D_1  S_1  
     e( 22 - 22) =     22.08822  eV     1   --> B_1  D_3  S_3  
     e( 23 - 23) =     23.45070  eV     1   --> B_1  D_3  S_3  
     e( 24 - 24) =     23.69969  eV     1   --> A_1  D_1  S_1  
     e( 25 - 25) =     24.39735  eV     1   --> A_2  D_2  S_2  
     e( 26 - 26) =     25.09977  eV     1   --> B_2  D_4  S_4  
     e( 27 - 27) =     25.59422  eV     1   --> A_1  D_1  S_1  
     e( 28 - 28) =     25.72082  eV     1   --> A_1  D_1  S_1  
     e( 29 - 29) =     25.83759  eV     1   --> B_2  D_4  S_4  
     e( 30 - 30) =     26.18343  eV     1   --> B_1  D_3  S_3  
     e( 31 - 31) =     27.06385  eV     1   --> B_1  D_3  S_3  
     e( 32 - 32) =     27.41569  eV     1   --> A_2  D_2  S_2  

 **************************************************************************

 **************************************************************************

                    xk=(   0.10607,   0.70711,   0.00000  )

     Band symmetry, C_2v (mm2)  point group:

     e(  1 -  1) =     -4.87895  eV     1   --> A_1  D_1  S_1  
     e(  2 -  2) =      0.44227  eV     1   --> B_2  D_4  S_4  
     e(  3 -  3) =      1.43613  eV     1   --> B_1  D_3  S_3  
     e(  4 -  4) =      1.45252  eV     1   --> A_1  D_1  S_1  
     e(  5 -  5) =      4.91011  eV     1   --> A_1  D_1  S_1  
     e(  6 -  6) =      7.22252  eV     1   --> B_1  D_3  S_3  
     e(  7 -  7) =     10.00486  eV     1   --> A_1  D_1  S_1  
     e(  8 -  8) =     10.81838  eV     1   --> B_1  D_3  S_3  
     e(  9 -  9) =     11.63545  eV     1   --> B_2  D_4  S_4  
     e( 10 - 10) =     12.46340  eV     1   --> B_2  D_4  S_4  
     e( 11 - 11) =     12.51714  eV     1   --> A_2  D_2  S_2  
     e( 12 - 12) =     14.11625  eV     1   --> A_1  D_1  S_1  
     e( 13 - 13) =     14.36943  eV     1   --> A_2  D_2  S_2  
     e( 14 - 14) =     15.01055  eV     1   --> A_1  D_1  S_1  
     e( 15 - 15) =     15.36151  eV     1   --> B_2  D_4  S_4  
     e( 16 - 16) =     15.49742  eV     1   --> B_1  D_3  S_3  
     e( 17 - 17) =     15.55810  eV     1   --> A_1  D_1  S_1  
     e( 18 - 18) =     16.62392  eV     1   --> B_2  D_4  S_4  
     e( 19 - 19) =     18.00465  eV     1   --> A_2  D_2  S_2  
     e( 20 - 20) =     18.02136  eV     1   --> B_2  D_4  S_4  
     e( 21 - 21) =     19.76553  eV     1   --> A_1  D_1  S_1  
     e( 22 - 22) =     22.02589  eV     1   --> B_1  D_3  S_3  
     e( 23 - 23) =     23.24993  eV     1   --> B_1  D_3  S_3  
     e( 24 - 24) =     23.58165  eV     1   --> A_1  D_1  S_1  
     e( 25 - 25) =     24.11389  eV     1   --> A_2  D_2  S_2  
     e( 26 - 26) =     25.05016  eV     1   --> B_2  D_4  S_4  
     e( 27 - 27) =     25.46350  eV     1   --> A_1  D_1  S_1  
     e( 28 - 28) =     25.73195  eV     1   --> A_1  D_1  S_1  
     e( 29 - 29) =     25.88342  eV     1   --> B_2  D_4  S_4  
     e( 30 - 30) =     26.17623  eV     1   --> B_1  D_3  S_3  
     e( 31 - 31) =     27.10232  eV     1   --> B_1  D_3  S_3  
     e( 32 - 32) =     27.71856  eV     1   --> A_2  D_2  S_2  

 **************************************************************************

 **************************************************************************

                    xk=(   0.12374,   0.70711,   0.00000  )

     Band symmetry, C_2v (mm2)  point group:

     e(  1 -  1) =     -4.87858  eV     1   --> A_1  D_1  S_1  
     e(  2 -  2) =      0.45909  eV     1   --> B_2  D_4  S_4  
     e(  3 -  3) =      1.40772  eV     1   --> B_1  D_3  S_3  
     e(  4 -  4) =      1.43189  eV     1   --> A_1  D_1  S_1  
     e(  5 -  5) =      4.99705  eV     1   --> A_1  D_1  S_1  
     e(  6 -  6) =      7.29327  eV     1   --> B_1  D_3  S_3  
     e(  7 -  7) =      9.79756  eV     1   --> A_1  D_1  S_1  
     e(  8 -  8) =     10.84406  eV     1   --> B_1  D_3  S_3  
     e(  9 -  9) =     11.44453  eV     1   --> B_2  D_4  S_4  
     e( 10 - 10) =     12.41423  eV     1   --> B_2  D_4  S_4  
     e( 11 - 11) =     12.53759  eV     1   --> A_2  D_2  S_2  
     e( 12 - 12) =     14.11053  eV     1   --> A_1  D_1  S_1  
     e( 13 - 13) =     14.30614  eV     1   --> A_2  D_2  S_2  
     e( 14 - 14) =     15.25182  eV     1   --> A_1  D_1  S_1  
     e( 15 - 15) =     15.51109  eV     1   --> B_1  D_3  S_3  
     e( 16 - 16) =     15.51319  eV     1   --> B_2  D_4  S_4  
     e( 17 - 17) =     15.59123  eV     1   --> A_1  D_1  S_1  
     e( 18 - 18) =     16.66712  eV     1   --> B_2  D_4  S_4  
     e( 19 - 19) =     18.12309  eV     1   --> A_2  D_2  S_2  
     e( 20 - 20) =     18.14528  eV     1   --> B_2  D_4  S_4  
     e( 21 - 21) =     19.75489  eV     1   --> A_1  D_1  S_1  
     e( 22 - 22) =     21.94728  eV     1   --> B_1  D_3  S_3  
     e( 23 - 23) =     23.04251  eV     1   --> B_1  D_3  S_3  
     e( 24 - 24) =     23.45658  eV     1   --> A_1  D_1  S_1  
     e( 25 - 25) =     23.83298  eV     1   --> A_2  D_2  S_2  
     e( 26 - 26) =     25.00185  eV     1   --> B_2  D_4  S_4  
     e( 27 - 27) =     25.23811  eV     1   --> A_1  D_1  S_1  
     e( 28 - 28) =     25.81538  eV     1   --> A_1  D_1  S_1  
     e( 29 - 29) =     25.92832  eV     1   --> B_2  D_4  S_4  
     e( 30 - 30) =     26.16600  eV     1   --> B_1  D_3  S_3  
     e( 31 - 31) =     27.07043  eV     1   --> B_1  D_3  S_3  
     e( 32 - 32) =     28.02116  eV     1   --> A_2  D_2  S_2  

 **************************************************************************

 **************************************************************************

                    xk=(   0.14142,   0.70711,   0.00000  )

     Band symmetry, C_2v (mm2)  point group:

     e(  1 -  1) =     -4.87818  eV     1   --> A_1  D_1  S_1  
     e(  2 -  2) =      0.47838  eV     1   --> B_2  D_4  S_4  
     e(  3 -  3) =      1.37602  eV     1   --> B_1  D_3  S_3  
     e(  4 -  4) =      1.41011  eV     1   --> A_1  D_1  S_1  
     e(  5 -  5) =      5.09519  eV     1   --> A_1  D_1  S_1  
     e(  6 -  6) =      7.37382  eV     1   --> B_1  D_3  S_3  
     e(  7 -  7) =      9.58193  eV     1   --> A_1  D_1  S_1  
     e(  8 -  8) =     10.87358  eV     1   --> B_1  D_3  S_3  
     e(  9 -  9) =     11.24869  eV     1   --> B_2  D_4  S_4  
     e( 10 - 10) =     12.35792  eV     1   --> B_2  D_4  S_4  
     e( 11 - 11) =     12.56087  eV     1   --> A_2  D_2  S_2  
     e( 12 - 12) =     14.10035  eV     1   --> A_1  D_1  S_1  
     e( 13 - 13) =     14.23860  eV     1   --> A_2  D_2  S_2  
     e( 14 - 14) =     15.50130  eV     1   --> A_1  D_1  S_1  
     e( 15 - 15) =     15.52661  eV     1   --> B_1  D_3  S_3  
     e( 16 - 16) =     15.63671  eV     1   --> A_1  D_1  S_1  
     e( 17 - 17) =     15.64770  eV     1   --> B_2  D_4  S_4  
     e( 18 - 18) =     16.73746  eV     1   --> B_2  D_4  S_4  
     e( 19 - 19) =     18.25449  eV     1   --> A_2  D_2  S_2  
     e( 20 - 20) =     18.28302  eV     1   --> B_2  D_4  S_4  
     e( 21 - 21) =     19.74204  eV     1   --> A_1  D_1  S_1  
     e( 22 - 22) =     21.84953  eV     1   --> B_1  D_3  S_3  
     e( 23 - 23) =     22.83465  eV     1   --> B_1  D_3  S_3  
     e( 24 - 24) =     23.32572  eV     1   --> A_1  D_1  S_1  
     e( 25 - 25) =     23.55504  eV     1   --> A_2  D_2  S_2  
     e( 26 - 26) =     24.95617  eV     1   --> B_2  D_4  S_4  
     e( 27 - 27) =     24.99288  eV     1   --> A_1  D_1  S_1  
     e( 28 - 28) =     25.90140  eV     1   --> A_1  D_1  S_1  
     e( 29 - 29) =     25.97147  eV     1   --> B_2  D_4  S_4  
     e( 30 - 30) =     26.15001  eV     1   --> B_1  D_3  S_3  
     e( 31 - 31) =     26.97275  eV     1   --> B_1  D_3  S_3  
     e( 32 - 32) =     28.32235  eV     1   --> A_2  D_2  S_2  

 **************************************************************************

 **************************************************************************

                    xk=(   0.15910,   0.70711,  -0.00000  )

     Band symmetry, C_2v (mm2)  point group:

     e(  1 -  1) =     -4.87776  eV     1   --> A_1  D_1  S_1  
     e(  2 -  2) =      0.50009  eV     1   --> B_2  D_4  S_4  
     e(  3 -  3) =      1.34140  eV     1   --> B_1  D_3  S_3  
     e(  4 -  4) =      1.38780  eV     1   --> A_1  D_1  S_1  
     e(  5 -  5) =      5.20385  eV     1   --> A_1  D_1  S_1  
     e(  6 -  6) =      7.46376  eV     1   --> B_1  D_3  S_3  
     e(  7 -  7) =      9.36113  eV     1   --> A_1  D_1  S_1  
     e(  8 -  8) =     10.90687  eV     1   --> B_1  D_3  S_3  
     e(  9 -  9) =     11.05001  eV     1   --> B_2  D_4  S_4  
     e( 10 - 10) =     12.29591  eV     1   --> B_2  D_4  S_4  
     e( 11 - 11) =     12.58683  eV     1   --> A_2  D_2  S_2  
     e( 12 - 12) =     14.08773  eV     1   --> A_1  D_1  S_1  
     e( 13 - 13) =     14.16823  eV     1   --> A_2  D_2  S_2  
     e( 14 - 14) =     15.54389  eV     1   --> B_1  D_3  S_3  
     e( 15 - 15) =     15.63627  eV     1   --> A_1  D_1  S_1  
     e( 16 - 16) =     15.75545  eV     1   --> B_2  D_4  S_4  
     e( 17 - 17) =     15.81129  eV     1   --> A_1  D_1  S_1  
     e( 18 - 18) =     16.84209  eV     1   --> B_2  D_4  S_4  
     e( 19 - 19) =     18.39755  eV     1   --> A_2  D_2  S_2  
     e( 20 - 20) =     18.43333  eV     1   --> B_2  D_4  S_4  
     e( 21 - 21) =     19.72661  eV     1   --> A_1  D_1  S_1  
     e( 22 - 22) =     21.72962  eV     1   --> B_1  D_3  S_3  
     e( 23 - 23) =     22.63150  eV     1   --> B_1  D_3  S_3  
     e( 24 - 24) =     23.18912  eV     1   --> A_1  D_1  S_1  
     e( 25 - 25) =     23.28034  eV     1   --> A_2  D_2  S_2  
     e( 26 - 26) =     24.73957  eV     1   --> A_1  D_1  S_1  
     e( 27 - 27) =     24.91422  eV     1   --> B_2  D_4  S_4  
     e( 28 - 28) =     25.98449  eV     1   --> A_1  D_1  S_1  
     e( 29 - 29) =     26.01236  eV     1   --> B_2  D_4  S_4  
     e( 30 - 30) =     26.12354  eV     1   --> B_1  D_3  S_3  
     e( 31 - 31) =     26.83522  eV     1   --> B_1  D_3  S_3  
     e( 32 - 32) =     28.48485  eV     1   --> A_1  D_1  S_1  

 **************************************************************************

 **************************************************************************

                    xk=(   0.17678,   0.70711,   0.00000  )

     Band symmetry, C_2v (mm2)  point group:

     e(  1 -  1) =     -4.87733  eV     1   --> A_1  D_1  S_1  
     e(  2 -  2) =      0.52416  eV     1   --> B_2  D_4  S_4  
     e(  3 -  3) =      1.30425  eV     1   --> B_1  D_3  S_3  
     e(  4 -  4) =      1.36553  eV     1   --> A_1  D_1  S_1  
     e(  5 -  5) =      5.32237  eV     1   --> A_1  D_1  S_1  
     e(  6 -  6) =      7.56270  eV     1   --> B_1  D_3  S_3  
     e(  7 -  7) =      9.13757  eV     1   --> A_1  D_1  S_1  
     e(  8 -  8) =     10.85007  eV     1   --> B_2  D_4  S_4  
     e(  9 -  9) =     10.94389  eV     1   --> B_1  D_3  S_3  
     e( 10 - 10) =     12.22942  eV     1   --> B_2  D_4  S_4  
     e( 11 - 11) =     12.61523  eV     1   --> A_2  D_2  S_2  
     e( 12 - 12) =     14.07396  eV     1   --> A_1  D_1  S_1  
     e( 13 - 13) =     14.09636  eV     1   --> A_2  D_2  S_2  
     e( 14 - 14) =     15.56280  eV     1   --> B_1  D_3  S_3  
     e( 15 - 15) =     15.67903  eV     1   --> A_1  D_1  S_1  
     e( 16 - 16) =     15.83229  eV     1   --> B_2  D_4  S_4  
     e( 17 - 17) =     16.08807  eV     1   --> A_1  D_1  S_1  
     e( 18 - 18) =     16.98331  eV     1   --> B_2  D_4  S_4  
     e( 19 - 19) =     18.55113  eV     1   --> A_2  D_2  S_2  
     e( 20 - 20) =     18.59503  eV     1   --> B_2  D_4  S_4  
     e( 21 - 21) =     19.70809  eV     1   --> A_1  D_1  S_1  
     e( 22 - 22) =     21.58519  eV     1   --> B_1  D_3  S_3  
     e( 23 - 23) =     22.43669  eV     1   --> B_1  D_3  S_3  
     e( 24 - 24) =     23.00909  eV     1   --> A_2  D_2  S_2  
     e( 25 - 25) =     23.04580  eV     1   --> A_1  D_1  S_1  
     e( 26 - 26) =     24.48716  eV     1   --> A_1  D_1  S_1  
     e( 27 - 27) =     24.87695  eV     1   --> B_2  D_4  S_4  
     e( 28 - 28) =     26.05068  eV     1   --> B_2  D_4  S_4  
     e( 29 - 29) =     26.06269  eV     1   --> A_1  D_1  S_1  
     e( 30 - 30) =     26.07853  eV     1   --> B_1  D_3  S_3  
     e( 31 - 31) =     26.68920  eV     1   --> B_1  D_3  S_3  
     e( 32 - 32) =     28.41748  eV     1   --> A_1  D_1  S_1  

 **************************************************************************

 **************************************************************************

                    xk=(   0.19445,   0.70711,   0.00000  )

     Band symmetry, C_2v (mm2)  point group:

     e(  1 -  1) =     -4.87689  eV     1   --> A_1  D_1  S_1  
     e(  2 -  2) =      0.55051  eV     1   --> B_2  D_4  S_4  
     e(  3 -  3) =      1.26496  eV     1   --> B_1  D_3  S_3  
     e(  4 -  4) =      1.34383  eV     1   --> A_1  D_1  S_1  
     e(  5 -  5) =      5.45008  eV     1   --> A_1  D_1  S_1  
     e(  6 -  6) =      7.67021  eV     1   --> B_1  D_3  S_3  
     e(  7 -  7) =      8.91305  eV     1   --> A_1  D_1  S_1  
     e(  8 -  8) =     10.65008  eV     1   --> B_2  D_4  S_4  
     e(  9 -  9) =     10.98455  eV     1   --> B_1  D_3  S_3  
     e( 10 - 10) =     12.15950  eV     1   --> B_2  D_4  S_4  
     e( 11 - 11) =     12.64579  eV     1   --> A_2  D_2  S_2  
     e( 12 - 12) =     14.02421  eV     1   --> A_2  D_2  S_2  
     e( 13 - 13) =     14.05989  eV     1   --> A_1  D_1  S_1  
     e( 14 - 14) =     15.58323  eV     1   --> B_1  D_3  S_3  
     e( 15 - 15) =     15.71502  eV     1   --> A_1  D_1  S_1  
     e( 16 - 16) =     15.88065  eV     1   --> B_2  D_4  S_4  
     e( 17 - 17) =     16.37779  eV     1   --> A_1  D_1  S_1  
     e( 18 - 18) =     17.15727  eV     1   --> B_2  D_4  S_4  
     e( 19 - 19) =     18.71425  eV     1   --> A_2  D_2  S_2  
     e( 20 - 20) =     18.76700  eV     1   --> B_2  D_4  S_4  
     e( 21 - 21) =     19.68574  eV     1   --> A_1  D_1  S_1  
     e( 22 - 22) =     21.41576  eV     1   --> B_1  D_3  S_3  
     e( 23 - 23) =     22.25144  eV     1   --> B_1  D_3  S_3  
     e( 24 - 24) =     22.74149  eV     1   --> A_2  D_2  S_2  
     e( 25 - 25) =     22.89391  eV     1   --> A_1  D_1  S_1  
     e( 26 - 26) =     24.24441  eV     1   --> A_1  D_1  S_1  
     e( 27 - 27) =     24.84523  eV     1   --> B_2  D_4  S_4  
     e( 28 - 28) =     26.00410  eV     1   --> B_1  D_3  S_3  
     e( 29 - 29) =     26.08625  eV     1   --> B_2  D_4  S_4  
     e( 30 - 30) =     26.13488  eV     1   --> A_1  D_1  S_1  
     e( 31 - 31) =     26.56255  eV     1   --> B_1  D_3  S_3  
     e( 32 - 32) =     28.36101  eV     1   --> A_1  D_1  S_1  

 **************************************************************************

 **************************************************************************

                    xk=(   0.21213,   0.70711,   0.00000  )

     Band symmetry, C_2v (mm2)  point group:

     e(  1 -  1) =     -4.87647  eV     1   --> A_1  D_1  S_1  
     e(  2 -  2) =      0.57908  eV     1   --> B_2  D_4  S_4  
     e(  3 -  3) =      1.22392  eV     1   --> B_1  D_3  S_3  
     e(  4 -  4) =      1.32318  eV     1   --> A_1  D_1  S_1  
     e(  5 -  5) =      5.58635  eV     1   --> A_1  D_1  S_1  
     e(  6 -  6) =      7.78590  eV     1   --> B_1  D_3  S_3  
     e(  7 -  7) =      8.68902  eV     1   --> A_1  D_1  S_1  
     e(  8 -  8) =     10.45097  eV     1   --> B_2  D_4  S_4  
     e(  9 -  9) =     11.02879  eV     1   --> B_1  D_3  S_3  
     e( 10 - 10) =     12.08706  eV     1   --> B_2  D_4  S_4  
     e( 11 - 11) =     12.67812  eV     1   --> A_2  D_2  S_2  
     e( 12 - 12) =     13.95293  eV     1   --> A_2  D_2  S_2  
     e( 13 - 13) =     14.04613  eV     1   --> A_1  D_1  S_1  
     e( 14 - 14) =     15.60501  eV     1   --> B_1  D_3  S_3  
     e( 15 - 15) =     15.74866  eV     1   --> A_1  D_1  S_1  
     e( 16 - 16) =     15.90667  eV     1   --> B_2  D_4  S_4  
     e( 17 - 17) =     16.67259  eV     1   --> A_1  D_1  S_1  
     e( 18 - 18) =     17.35671  eV     1   --> B_2  D_4  S_4  
     e( 19 - 19) =     18.88606  eV     1   --> A_2  D_2  S_2  
     e( 20 - 20) =     18.94813  eV     1   --> B_2  D_4  S_4  
     e( 21 - 21) =     19.65852  eV     1   --> A_1  D_1  S_1  
     e( 22 - 22) =     21.22339  eV     1   --> B_1  D_3  S_3  
     e( 23 - 23) =     22.07407  eV     1   --> B_1  D_3  S_3  
     e( 24 - 24) =     22.47770  eV     1   --> A_2  D_2  S_2  
     e( 25 - 25) =     22.73147  eV     1   --> A_1  D_1  S_1  
     e( 26 - 26) =     24.01977  eV     1   --> A_1  D_1  S_1  
     e( 27 - 27) =     24.81992  eV     1   --> B_2  D_4  S_4  
     e( 28 - 28) =     25.89468  eV     1   --> B_1  D_3  S_3  
     e( 29 - 29) =     26.11901  eV     1   --> B_2  D_4  S_4  
     e( 30 - 30) =     26.20032  eV     1   --> A_1  D_1  S_1  
     e( 31 - 31) =     26.47175  eV     1   --> B_1  D_3  S_3  
     e( 32 - 32) =     28.31370  eV     1   --> A_1  D_1  S_1  

 **************************************************************************

 **************************************************************************

                    xk=(   0.22981,   0.70711,   0.00000  )

     Band symmetry, C_2v (mm2)  point group:

     e(  1 -  1) =     -4.87607  eV     1   --> A_1  D_1  S_1  
     e(  2 -  2) =      0.60977  eV     1   --> B_2  D_4  S_4  
     e(  3 -  3) =      1.18152  eV     1   --> B_1  D_3  S_3  
     e(  4 -  4) =      1.30401  eV     1   --> A_1  D_1  S_1  
     e(  5 -  5) =      5.73053  eV     1   --> A_1  D_1  S_1  
     e(  6 -  6) =      7.90935  eV     1   --> B_1  D_3  S_3  
     e(  7 -  7) =      8.46669  eV     1   --> A_1  D_1  S_1  
     e(  8 -  8) =     10.25352  eV     1   --> B_2  D_4  S_4  
     e(  9 -  9) =     11.07649  eV     1   --> B_1  D_3  S_3  
     e( 10 - 10) =     12.01294  eV     1   --> B_2  D_4  S_4  
     e( 11 - 11) =     12.71169  eV     1   --> A_2  D_2  S_2  
     e( 12 - 12) =     13.88372  eV     1   --> A_2  D_2  S_2  
     e( 13 - 13) =     14.03317  eV     1   --> A_1  D_1  S_1  
     e( 14 - 14) =     15.62799  eV     1   --> B_1  D_3  S_3  
     e( 15 - 15) =     15.78000  eV     1   --> A_1  D_1  S_1  
     e( 16 - 16) =     15.91665  eV     1   --> B_2  D_4  S_4  
     e( 17 - 17) =     16.96911  eV     1   --> A_1  D_1  S_1  
     e( 18 - 18) =     17.57446  eV     1   --> B_2  D_4  S_4  
     e( 19 - 19) =     19.06584  eV     1   --> A_2  D_2  S_2  
     e( 20 - 20) =     19.13729  eV     1   --> B_2  D_4  S_4  
     e( 21 - 21) =     19.62494  eV     1   --> A_1  D_1  S_1  
     e( 22 - 22) =     21.01206  eV     1   --> B_1  D_3  S_3  
     e( 23 - 23) =     21.90093  eV     1   --> B_1  D_3  S_3  
     e( 24 - 24) =     22.21789  eV     1   --> A_2  D_2  S_2  
     e( 25 - 25) =     22.55771  eV     1   --> A_1  D_1  S_1  
     e( 26 - 26) =     23.82044  eV     1   --> A_1  D_1  S_1  
     e( 27 - 27) =     24.80183  eV     1   --> B_2  D_4  S_4  
     e( 28 - 28) =     25.75919  eV     1   --> B_1  D_3  S_3  
     e( 29 - 29) =     26.14896  eV     1   --> B_2  D_4  S_4  
     e( 30 - 30) =     26.25857  eV     1   --> A_1  D_1  S_1  
     e( 31 - 31) =     26.41478  eV     1   --> B_1  D_3  S_3  
     e( 32 - 32) =     28.27423  eV     1   --> A_1  D_1  S_1  

 **************************************************************************

 **************************************************************************

                    xk=(   0.24749,   0.70711,  -0.00000  )

     Band symmetry, C_2v (mm2)  point group:

     e(  1 -  1) =     -4.87570  eV     1   --> A_1  D_1  S_1  
     e(  2 -  2) =      0.64248  eV     1   --> B_2  D_4  S_4  
     e(  3 -  3) =      1.13810  eV     1   --> B_1  D_3  S_3  
     e(  4 -  4) =      1.28669  eV     1   --> A_1  D_1  S_1  
     e(  5 -  5) =      5.88192  eV     1   --> A_1  D_1  S_1  
     e(  6 -  6) =      8.04018  eV     1   --> B_1  D_3  S_3  
     e(  7 -  7) =      8.24710  eV     1   --> A_1  D_1  S_1  
     e(  8 -  8) =     10.05832  eV     1   --> B_2  D_4  S_4  
     e(  9 -  9) =     11.12757  eV     1   --> B_1  D_3  S_3  
     e( 10 - 10) =     11.93782  eV     1   --> B_2  D_4  S_4  
     e( 11 - 11) =     12.74578  eV     1   --> A_2  D_2  S_2  
     e( 12 - 12) =     13.81780  eV     1   --> A_2  D_2  S_2  
     e( 13 - 13) =     14.02134  eV     1   --> A_1  D_1  S_1  
     e( 14 - 14) =     15.65200  eV     1   --> B_1  D_3  S_3  
     e( 15 - 15) =     15.80858  eV     1   --> A_1  D_1  S_1  
     e( 16 - 16) =     15.91547  eV     1   --> B_2  D_4  S_4  
     e( 17 - 17) =     17.26433  eV     1   --> A_1  D_1  S_1  
     e( 18 - 18) =     17.80495  eV     1   --> B_2  D_4  S_4  
     e( 19 - 19) =     19.25294  eV     1   --> A_2  D_2  S_2  
     e( 20 - 20) =     19.33333  eV     1   --> B_2  D_4  S_4  
     e( 21 - 21) =     19.58294  eV     1   --> A_1  D_1  S_1  
     e( 22 - 22) =     20.78631  eV     1   --> B_1  D_3  S_3  
     e( 23 - 23) =     21.72788  eV     1   --> B_1  D_3  S_3  
     e( 24 - 24) =     21.96224  eV     1   --> A_2  D_2  S_2  
     e( 25 - 25) =     22.37475  eV     1   --> A_1  D_1  S_1  
     e( 26 - 26) =     23.65110  eV     1   --> A_1  D_1  S_1  
     e( 27 - 27) =     24.79182  eV     1   --> B_2  D_4  S_4  
     e( 28 - 28) =     25.61374  eV     1   --> B_1  D_3  S_3  
     e( 29 - 29) =     26.17615  eV     1   --> B_2  D_4  S_4  
     e( 30 - 30) =     26.30930  eV     1   --> A_1  D_1  S_1  
     e( 31 - 31) =     26.37983  eV     1   --> B_1  D_3  S_3  
     e( 32 - 32) =     28.24156  eV     1   --> A_1  D_1  S_1  

 **************************************************************************

 **************************************************************************

                    xk=(   0.26517,   0.70711,   0.00000  )

     Band symmetry, C_2v (mm2)  point group:

     e(  1 -  1) =     -4.87537  eV     1   --> A_1  D_1  S_1  
     e(  2 -  2) =      0.67710  eV     1   --> B_2  D_4  S_4  
     e(  3 -  3) =      1.09401  eV     1   --> B_1  D_3  S_3  
     e(  4 -  4) =      1.27152  eV     1   --> A_1  D_1  S_1  
     e(  5 -  5) =      6.03971  eV     1   --> A_1  D_1  S_1  
     e(  6 -  6) =      8.03133  eV     1   --> A_1  D_1  S_1  
     e(  7 -  7) =      8.17801  eV     1   --> B_1  D_3  S_3  
     e(  8 -  8) =      9.86591  eV     1   --> B_2  D_4  S_4  
     e(  9 -  9) =     11.18189  eV     1   --> B_1  D_3  S_3  
     e( 10 - 10) =     11.86235  eV     1   --> B_2  D_4  S_4  
     e( 11 - 11) =     12.77943  eV     1   --> A_2  D_2  S_2  
     e( 12 - 12) =     13.75657  eV     1   --> A_2  D_2  S_2  
     e( 13 - 13) =     14.01093  eV     1   --> A_1  D_1  S_1  
     e( 14 - 14) =     15.67685  eV     1   --> B_1  D_3  S_3  
     e( 15 - 15) =     15.83388  eV     1   --> A_1  D_1  S_1  
     e( 16 - 16) =     15.90653  eV     1   --> B_2  D_4  S_4  
     e( 17 - 17) =     17.55487  eV     1   --> A_1  D_1  S_1  
     e( 18 - 18) =     18.04421  eV     1   --> B_2  D_4  S_4  
     e( 19 - 19) =     19.44678  eV     1   --> A_2  D_2  S_2  
     e( 20 - 20) =     19.52978  eV     1   --> A_1  D_1  S_1  
     e( 21 - 21) =     19.53505  eV     1   --> B_2  D_4  S_4  
     e( 22 - 22) =     20.55019  eV     1   --> B_1  D_3  S_3  
     e( 23 - 23) =     21.55152  eV     1   --> B_1  D_3  S_3  
     e( 24 - 24) =     21.71095  eV     1   --> A_2  D_2  S_2  
     e( 25 - 25) =     22.18887  eV     1   --> A_1  D_1  S_1  
     e( 26 - 26) =     23.51319  eV     1   --> A_1  D_1  S_1  
     e( 27 - 27) =     24.79075  eV     1   --> B_2  D_4  S_4  
     e( 28 - 28) =     25.47086  eV     1   --> B_1  D_3  S_3  
     e( 29 - 29) =     26.20069  eV     1   --> B_2  D_4  S_4  
[...]

 **************************************************************************

                    xk=(   0.06187,   0.70711,   0.06187  )

     Band symmetry, C_2v (mm2)  point group:

     e(  1 -  1) =     -4.87967  eV     1   --> A_1  D_1  S_1  
     e(  2 -  2) =      0.42748  eV     1   --> B_2  D_4  S_4  
     e(  3 -  3) =      1.37651  eV     1   --> A_1  D_1  S_1  
     e(  4 -  4) =      1.56545  eV     1   --> B_1  D_3  S_3  
     e(  5 -  5) =      4.81887  eV     1   --> A_1  D_1  S_1  
     e(  6 -  6) =      7.16470  eV     1   --> A_1  D_1  S_1  
     e(  7 -  7) =     10.40540  eV     1   --> B_1  D_3  S_3  
     e(  8 -  8) =     10.55690  eV     1   --> A_1  D_1  S_1  
     e(  9 -  9) =     12.02756  eV     1   --> A_2  D_2  S_2  
     e( 10 - 10) =     12.08786  eV     1   --> B_2  D_4  S_4  
     e( 11 - 11) =     12.69735  eV     1   --> B_2  D_4  S_4  
     e( 12 - 12) =     14.35941  eV     1   --> B_1  D_3  S_3  
     e( 13 - 13) =     14.44632  eV     1   --> B_2  D_4  S_4  
     e( 14 - 14) =     14.56396  eV     1   --> A_1  D_1  S_1  
     e( 15 - 15) =     15.21989  eV     1   --> A_2  D_2  S_2  
     e( 16 - 16) =     15.49515  eV     1   --> A_1  D_1  S_1  
     e( 17 - 17) =     15.53334  eV     1   --> B_1  D_3  S_3  
     e( 18 - 18) =     16.59473  eV     1   --> B_2  D_4  S_4  
     e( 19 - 19) =     17.71978  eV     1   --> A_2  D_2  S_2  
     e( 20 - 20) =     18.06279  eV     1   --> B_2  D_4  S_4  
     e( 21 - 21) =     19.77253  eV     1   --> A_1  D_1  S_1  
     e( 22 - 22) =     22.08910  eV     1   --> A_1  D_1  S_1  
     e( 23 - 23) =     23.22993  eV     1   --> A_1  D_1  S_1  
     e( 24 - 24) =     24.02164  eV     1   --> B_1  D_3  S_3  
     e( 25 - 25) =     24.31925  eV     1   --> B_2  D_4  S_4  
     e( 26 - 26) =     25.36156  eV     1   --> B_2  D_4  S_4  
     e( 27 - 27) =     25.49730  eV     1   --> A_1  D_1  S_1  
     e( 28 - 28) =     25.72284  eV     1   --> A_2  D_2  S_2  
     e( 29 - 29) =     25.94286  eV     1   --> B_1  D_3  S_3  
     e( 30 - 30) =     25.99310  eV     1   --> A_1  D_1  S_1  
     e( 31 - 31) =     27.15920  eV     1   --> A_1  D_1  S_1  
     e( 32 - 32) =     27.33579  eV     1   --> B_2  D_4  S_4  

 **************************************************************************

 **************************************************************************

                    xk=(   0.05303,   0.70711,   0.05303  )

     Band symmetry, C_2v (mm2)  point group:

     e(  1 -  1) =     -4.87970  eV     1   --> A_1  D_1  S_1  
     e(  2 -  2) =      0.41892  eV     1   --> B_2  D_4  S_4  
     e(  3 -  3) =      1.41203  eV     1   --> A_1  D_1  S_1  
     e(  4 -  4) =      1.55333  eV     1   --> B_1  D_3  S_3  
     e(  5 -  5) =      4.77946  eV     1   --> A_1  D_1  S_1  
     e(  6 -  6) =      7.12604  eV     1   --> A_1  D_1  S_1  
     e(  7 -  7) =     10.48803  eV     1   --> B_1  D_3  S_3  
     e(  8 -  8) =     10.60465  eV     1   --> A_1  D_1  S_1  
     e(  9 -  9) =     12.12719  eV     1   --> A_2  D_2  S_2  
     e( 10 - 10) =     12.15102  eV     1   --> B_2  D_4  S_4  
     e( 11 - 11) =     12.67662  eV     1   --> B_2  D_4  S_4  
     e( 12 - 12) =     14.25827  eV     1   --> B_1  D_3  S_3  
     e( 13 - 13) =     14.47497  eV     1   --> B_2  D_4  S_4  
     e( 14 - 14) =     14.51525  eV     1   --> A_1  D_1  S_1  
     e( 15 - 15) =     15.10073  eV     1   --> A_2  D_2  S_2  
     e( 16 - 16) =     15.48432  eV     1   --> A_1  D_1  S_1  
     e( 17 - 17) =     15.51247  eV     1   --> B_1  D_3  S_3  
     e( 18 - 18) =     16.58905  eV     1   --> B_2  D_4  S_4  
     e( 19 - 19) =     17.70032  eV     1   --> A_2  D_2  S_2  
     e( 20 - 20) =     17.96071  eV     1   --> B_2  D_4  S_4  
     e( 21 - 21) =     19.77846  eV     1   --> A_1  D_1  S_1  
     e( 22 - 22) =     22.12523  eV     1   --> A_1  D_1  S_1  
     e( 23 - 23) =     23.40476  eV     1   --> A_1  D_1  S_1  
     e( 24 - 24) =     24.02941  eV     1   --> B_1  D_3  S_3  
     e( 25 - 25) =     24.52502  eV     1   --> B_2  D_4  S_4  
     e( 26 - 26) =     25.35248  eV     1   --> B_2  D_4  S_4  
     e( 27 - 27) =     25.47776  eV     1   --> A_1  D_1  S_1  
     e( 28 - 28) =     25.71046  eV     1   --> A_2  D_2  S_2  
     e( 29 - 29) =     26.01220  eV     1   --> B_1  D_3  S_3  
     e( 30 - 30) =     26.03744  eV     1   --> A_1  D_1  S_1  
     e( 31 - 31) =     27.05125  eV     1   --> A_1  D_1  S_1  
     e( 32 - 32) =     27.14680  eV     1   --> B_2  D_4  S_4  

 **************************************************************************

 **************************************************************************

                    xk=(   0.04419,   0.70711,   0.04419  )

     Band symmetry, C_2v (mm2)  point group:

     e(  1 -  1) =     -4.87977  eV     1   --> A_1  D_1  S_1  
     e(  2 -  2) =      0.41167  eV     1   --> B_2  D_4  S_4  
     e(  3 -  3) =      1.44340  eV     1   --> A_1  D_1  S_1  
     e(  4 -  4) =      1.54306  eV     1   --> B_1  D_3  S_3  
     e(  5 -  5) =      4.74448  eV     1   --> A_1  D_1  S_1  
     e(  6 -  6) =      7.09370  eV     1   --> A_1  D_1  S_1  
     e(  7 -  7) =     10.56194  eV     1   --> B_1  D_3  S_3  
     e(  8 -  8) =     10.64645  eV     1   --> A_1  D_1  S_1  
     e(  9 -  9) =     12.21145  eV     1   --> B_2  D_4  S_4  
     e( 10 - 10) =     12.21847  eV     1   --> A_2  D_2  S_2  
     e( 11 - 11) =     12.65170  eV     1   --> B_2  D_4  S_4  
     e( 12 - 12) =     14.16804  eV     1   --> B_1  D_3  S_3  
     e( 13 - 13) =     14.47156  eV     1   --> A_1  D_1  S_1  
     e( 14 - 14) =     14.50200  eV     1   --> B_2  D_4  S_4  
     e( 15 - 15) =     14.99267  eV     1   --> A_2  D_2  S_2  
     e( 16 - 16) =     15.47582  eV     1   --> A_1  D_1  S_1  
     e( 17 - 17) =     15.49544  eV     1   --> B_1  D_3  S_3  
     e( 18 - 18) =     16.58526  eV     1   --> B_2  D_4  S_4  
     e( 19 - 19) =     17.68410  eV     1   --> A_2  D_2  S_2  
     e( 20 - 20) =     17.87044  eV     1   --> B_2  D_4  S_4  
     e( 21 - 21) =     19.78319  eV     1   --> A_1  D_1  S_1  
     e( 22 - 22) =     22.15443  eV     1   --> A_1  D_1  S_1  
     e( 23 - 23) =     23.57052  eV     1   --> A_1  D_1  S_1  
     e( 24 - 24) =     24.03507  eV     1   --> B_1  D_3  S_3  
     e( 25 - 25) =     24.73099  eV     1   --> B_2  D_4  S_4  
     e( 26 - 26) =     25.34691  eV     1   --> B_2  D_4  S_4  
     e( 27 - 27) =     25.45280  eV     1   --> A_1  D_1  S_1  
     e( 28 - 28) =     25.69998  eV     1   --> A_2  D_2  S_2  
     e( 29 - 29) =     26.07135  eV     1   --> B_1  D_3  S_3  
     e( 30 - 30) =     26.08091  eV     1   --> A_1  D_1  S_1  
     e( 31 - 31) =     26.94952  eV     1   -->   ?
     e( 32 - 32) =     26.95191  eV     1   -->   ?

 **************************************************************************

 **************************************************************************

                    xk=(   0.03536,   0.70711,   0.03536  )

     Band symmetry, C_2v (mm2)  point group:

     e(  1 -  1) =     -4.87986  eV     1   --> A_1  D_1  S_1  
     e(  2 -  2) =      0.40574  eV     1   --> B_2  D_4  S_4  
     e(  3 -  3) =      1.47003  eV     1   --> A_1  D_1  S_1  
     e(  4 -  4) =      1.53465  eV     1   --> B_1  D_3  S_3  
     e(  5 -  5) =      4.71466  eV     1   --> A_1  D_1  S_1  
     e(  6 -  6) =      7.06751  eV     1   --> A_1  D_1  S_1  
     e(  7 -  7) =     10.62554  eV     1   --> B_1  D_3  S_3  
     e(  8 -  8) =     10.68168  eV     1   --> A_1  D_1  S_1  
     e(  9 -  9) =     12.26907  eV     1   --> B_2  D_4  S_4  
     e( 10 - 10) =     12.29903  eV     1   --> A_2  D_2  S_2  
     e( 11 - 11) =     12.62286  eV     1   --> B_2  D_4  S_4  
     e( 12 - 12) =     14.09071  eV     1   --> B_1  D_3  S_3  
     e( 13 - 13) =     14.43408  eV     1   --> A_1  D_1  S_1  
     e( 14 - 14) =     14.52619  eV     1   --> B_2  D_4  S_4  
     e( 15 - 15) =     14.89823  eV     1   --> A_2  D_2  S_2  
     e( 16 - 16) =     15.46929  eV     1   --> A_1  D_1  S_1  
     e( 17 - 17) =     15.48190  eV     1   --> B_1  D_3  S_3  
     e( 18 - 18) =     16.58317  eV     1   --> B_2  D_4  S_4  
     e( 19 - 19) =     17.67098  eV     1   --> A_2  D_2  S_2  
     e( 20 - 20) =     17.79345  eV     1   --> B_2  D_4  S_4  
     e( 21 - 21) =     19.78686  eV     1   --> A_1  D_1  S_1  
     e( 22 - 22) =     22.17752  eV     1   --> A_1  D_1  S_1  
     e( 23 - 23) =     23.72196  eV     1   --> A_1  D_1  S_1  
     e( 24 - 24) =     24.03911  eV     1   --> B_1  D_3  S_3  
     e( 25 - 25) =     24.93290  eV     1   --> B_2  D_4  S_4  
     e( 26 - 26) =     25.34773  eV     1   --> B_2  D_4  S_4  
     e( 27 - 27) =     25.42407  eV     1   --> A_1  D_1  S_1  
     e( 28 - 28) =     25.69141  eV     1   --> A_2  D_2  S_2  
     e( 29 - 29) =     26.12012  eV     1   -->   ?
     e( 30 - 30) =     26.12112  eV     1   -->   ?
     e( 31 - 31) =     26.75297  eV     1   --> B_2  D_4  S_4  
     e( 32 - 32) =     26.85748  eV     1   --> A_1  D_1  S_1  

 **************************************************************************

 **************************************************************************

                    xk=(   0.02652,   0.70711,   0.02652  )

     Band symmetry, C_2v (mm2)  point group:

     e(  1 -  1) =     -4.87994  eV     1   --> A_1  D_1  S_1  
     e(  2 -  2) =      0.40113  eV     1   --> B_2  D_4  S_4  
     e(  3 -  3) =      1.49137  eV     1   --> A_1  D_1  S_1  
     e(  4 -  4) =      1.52810  eV     1   --> B_1  D_3  S_3  
     e(  5 -  5) =      4.69069  eV     1   --> A_1  D_1  S_1  
     e(  6 -  6) =      7.04731  eV     1   --> A_1  D_1  S_1  
     e(  7 -  7) =     10.67719  eV     1   --> B_1  D_3  S_3  
     e(  8 -  8) =     10.70976  eV     1   --> A_1  D_1  S_1  
     e(  9 -  9) =     12.32380  eV     1   --> B_2  D_4  S_4  
     e( 10 - 10) =     12.36611  eV     1   --> A_2  D_2  S_2  
     e( 11 - 11) =     12.59033  eV     1   --> B_2  D_4  S_4  
     e( 12 - 12) =     14.02816  eV     1   --> B_1  D_3  S_3  
     e( 13 - 13) =     14.40382  eV     1   --> A_1  D_1  S_1  
     e( 14 - 14) =     14.54638  eV     1   --> B_2  D_4  S_4  
     e( 15 - 15) =     14.82026  eV     1   --> A_2  D_2  S_2  
     e( 16 - 16) =     15.46447  eV     1   --> A_1  D_1  S_1  
     e( 17 - 17) =     15.47158  eV     1   --> B_1  D_3  S_3  
     e( 18 - 18) =     16.58242  eV     1   --> B_2  D_4  S_4  
     e( 19 - 19) =     17.66087  eV     1   --> A_2  D_2  S_2  
     e( 20 - 20) =     17.73131  eV     1   --> B_2  D_4  S_4  
     e( 21 - 21) =     19.78959  eV     1   --> A_1  D_1  S_1  
     e( 22 - 22) =     22.19503  eV     1   --> A_1  D_1  S_1  
     e( 23 - 23) =     23.85282  eV     1   --> A_1  D_1  S_1  
     e( 24 - 24) =     24.04191  eV     1   --> B_1  D_3  S_3  
     e( 25 - 25) =     25.11671  eV     1   --> B_2  D_4  S_4  
     e( 26 - 26) =     25.36668  eV     1   --> B_2  D_4  S_4  
     e( 27 - 27) =     25.39401  eV     1   --> A_1  D_1  S_1  
     e( 28 - 28) =     25.68474  eV     1   --> A_2  D_2  S_2  
     e( 29 - 29) =     26.15602  eV     1   --> A_1  D_1  S_1  
     e( 30 - 30) =     26.15831  eV     1   --> B_1  D_3  S_3  
     e( 31 - 31) =     26.55265  eV     1   --> B_2  D_4  S_4  
     e( 32 - 32) =     26.77904  eV     1   --> A_1  D_1  S_1  

 **************************************************************************

 **************************************************************************

                    xk=(   0.01768,   0.70711,   0.01768  )

     Band symmetry, C_2v (mm2)  point group:

     e(  1 -  1) =     -4.88002  eV     1   --> A_1  D_1  S_1  
     e(  2 -  2) =      0.39784  eV     1   --> B_2  D_4  S_4  
     e(  3 -  3) =      1.50697  eV     1   --> A_1  D_1  S_1  
     e(  4 -  4) =      1.52342  eV     1   --> B_1  D_3  S_3  
     e(  5 -  5) =      4.67312  eV     1   --> A_1  D_1  S_1  
     e(  6 -  6) =      7.03298  eV     1   --> A_1  D_1  S_1  
     e(  7 -  7) =     10.71539  eV     1   --> B_1  D_3  S_3  
     e(  8 -  8) =     10.73020  eV     1   --> A_1  D_1  S_1  
     e(  9 -  9) =     12.37549  eV     1   --> B_2  D_4  S_4  
     e( 10 - 10) =     12.41683  eV     1   --> A_2  D_2  S_2  
     e( 11 - 11) =     12.55440  eV     1   --> B_2  D_4  S_4  
     e( 12 - 12) =     13.98207  eV     1   --> B_1  D_3  S_3  
     e( 13 - 13) =     14.38160  eV     1   --> A_1  D_1  S_1  
     e( 14 - 14) =     14.56158  eV     1   --> B_2  D_4  S_4  
     e( 15 - 15) =     14.76170  eV     1   --> A_2  D_2  S_2  
     e( 16 - 16) =     15.46115  eV     1   --> A_1  D_1  S_1  
     e( 17 - 17) =     15.46432  eV     1   --> B_1  D_3  S_3  
     e( 18 - 18) =     16.58247  eV     1   --> B_2  D_4  S_4  
     e( 19 - 19) =     17.65370  eV     1   --> A_2  D_2  S_2  
     e( 20 - 20) =     17.68553  eV     1   --> B_2  D_4  S_4  
     e( 21 - 21) =     19.79147  eV     1   --> A_1  D_1  S_1  
     e( 22 - 22) =     22.20732  eV     1   --> A_1  D_1  S_1  
     e( 23 - 23) =     23.95558  eV     1   --> A_1  D_1  S_1  
     e( 24 - 24) =     24.04373  eV     1   --> B_1  D_3  S_3  
     e( 25 - 25) =     25.23316  eV     1   --> B_2  D_4  S_4  
     e( 26 - 26) =     25.36644  eV     1   --> A_1  D_1  S_1  
     e( 27 - 27) =     25.44815  eV     1   --> B_2  D_4  S_4  
     e( 28 - 28) =     25.67997  eV     1   --> A_2  D_2  S_2  
     e( 29 - 29) =     26.18355  eV     1   --> A_1  D_1  S_1  
     e( 30 - 30) =     26.18575  eV     1   --> B_1  D_3  S_3  
     e( 31 - 31) =     26.35623  eV     1   --> B_2  D_4  S_4  
     e( 32 - 32) =     26.71835  eV     1   --> A_1  D_1  S_1  

 **************************************************************************

 **************************************************************************

                    xk=(   0.00884,   0.70711,   0.00884  )

     Band symmetry, C_2v (mm2)  point group:

     e(  1 -  1) =     -4.88007  eV     1   --> A_1  D_1  S_1  
     e(  2 -  2) =      0.39586  eV     1   --> B_2  D_4  S_4  
     e(  3 -  3) =      1.51648  eV     1   --> A_1  D_1  S_1  
     e(  4 -  4) =      1.52061  eV     1   --> B_1  D_3  S_3  
     e(  5 -  5) =      4.66240  eV     1   --> A_1  D_1  S_1  
     e(  6 -  6) =      7.02442  eV     1   --> A_1  D_1  S_1  
     e(  7 -  7) =     10.73887  eV     1   --> B_1  D_3  S_3  
     e(  8 -  8) =     10.74262  eV     1   --> A_1  D_1  S_1  
     e(  9 -  9) =     12.42372  eV     1   --> B_2  D_4  S_4  
     e( 10 - 10) =     12.44855  eV     1   --> A_2  D_2  S_2  
     e( 11 - 11) =     12.51560  eV     1   --> B_2  D_4  S_4  
     e( 12 - 12) =     13.95382  eV     1   --> B_1  D_3  S_3  
     e( 13 - 13) =     14.36803  eV     1   --> A_1  D_1  S_1  
     e( 14 - 14) =     14.57102  eV     1   --> B_2  D_4  S_4  
     e( 15 - 15) =     14.72526  eV     1   --> A_2  D_2  S_2  
     e( 16 - 16) =     15.45921  eV     1   -->   ?
     e( 17 - 17) =     15.46000  eV     1   -->   ?
     e( 18 - 18) =     16.58280  eV     1   --> B_2  D_4  S_4  
     e( 19 - 19) =     17.64941  eV     1   --> A_2  D_2  S_2  
     e( 20 - 20) =     17.65746  eV     1   --> B_2  D_4  S_4  
     e( 21 - 21) =     19.79258  eV     1   --> A_1  D_1  S_1  
     e( 22 - 22) =     22.21461  eV     1   --> A_1  D_1  S_1  
     e( 23 - 23) =     24.02199  eV     1   --> A_1  D_1  S_1  
     e( 24 - 24) =     24.04475  eV     1   --> B_1  D_3  S_3  
     e( 25 - 25) =     25.26680  eV     1   --> B_2  D_4  S_4  
     e( 26 - 26) =     25.34650  eV     1   --> A_1  D_1  S_1  
     e( 27 - 27) =     25.59192  eV     1   --> B_2  D_4  S_4  
     e( 28 - 28) =     25.67712  eV     1   --> A_2  D_2  S_2  
     e( 29 - 29) =     26.17962  eV     1   --> B_2  D_4  S_4  
     e( 30 - 30) =     26.20151  eV     1   --> A_1  D_1  S_1  
     e( 31 - 31) =     26.20228  eV     1   --> B_1  D_3  S_3  
     e( 32 - 32) =     26.67959  eV     1   --> A_1  D_1  S_1  

 **************************************************************************

 **************************************************************************

                    xk=(   0.00000,   0.70711,   0.00000  )

     point group D_4h(4/mmm)
     there are 10 classes
     the character table:

       E     2C4   C2    2C2'  2C2'' i     2S4   s_h   2s_v  2s_d 
A_1g   1.00  1.00  1.00  1.00  1.00  1.00  1.00  1.00  1.00  1.00
A_2g   1.00  1.00  1.00 -1.00 -1.00  1.00  1.00  1.00 -1.00 -1.00
B_1g   1.00 -1.00  1.00  1.00 -1.00  1.00 -1.00  1.00  1.00 -1.00
B_2g   1.00 -1.00  1.00 -1.00  1.00  1.00 -1.00  1.00 -1.00  1.00
E_g    2.00  0.00 -2.00  0.00  0.00  2.00  0.00 -2.00  0.00  0.00
A_1u   1.00  1.00  1.00  1.00  1.00 -1.00 -1.00 -1.00 -1.00 -1.00
A_2u   1.00  1.00  1.00 -1.00 -1.00 -1.00 -1.00 -1.00  1.00  1.00
B_1u   1.00 -1.00  1.00  1.00 -1.00 -1.00  1.00 -1.00 -1.00  1.00
B_2u   1.00 -1.00  1.00 -1.00  1.00 -1.00  1.00 -1.00  1.00 -1.00
E_u    2.00  0.00 -2.00  0.00  0.00 -2.00  0.00  2.00  0.00  0.00

     the symmetry operations in each class and the name of the first element:

     E        1
                                                                 
     2C4      7    8
                                                                 
     C2       3
                                                                 
     2C2'     2    4
                                                                 
     2C2''    5    6
                                                                 
     i        9
                                                                 
     2S4     15   16
                                                                 
     s_h     11
                                                                 
     2s_v    10   12
                                                                 
     2s_d    13   14
                                                                 

     Band symmetry, D_4h(4/mmm) point group:

     e(  1 -  1) =     -4.88008  eV     1   --> A_1g X_1  M_1  
     e(  2 -  2) =      0.39520  eV     1   --> A_2u X_4' M_4' 
     e(  3 -  4) =      1.51967  eV     2   --> E_u  X_5' M_5' 
     e(  5 -  5) =      4.65880  eV     1   --> A_1g X_1  M_1  
     e(  6 -  6) =      7.02157  eV     1   --> B_2g X_3  M_3  
     e(  7 -  8) =     10.74679  eV     2   --> E_u  X_5' M_5' 
     e(  9 - 10) =     12.45936  eV     2   --> E_g  X_5  M_5  
     e( 11 - 11) =     12.48308  eV     1   --> A_2u X_4' M_4' 
     e( 12 - 12) =     13.94429  eV     1   --> B_1g X_2  M_2  
     e( 13 - 13) =     14.36346  eV     1   --> A_1g X_1  M_1  
     e( 14 - 14) =     14.57422  eV     1   --> B_1u X_2' M_2' 
     e( 15 - 15) =     14.71287  eV     1   --> B_2u X_3' M_3' 
     e( 16 - 17) =     15.45857  eV     2   --> E_u  X_5' M_5' 
     e( 18 - 18) =     16.58296  eV     1   --> A_2u X_4' M_4' 
     e( 19 - 20) =     17.64799  eV     2   --> E_g  X_5  M_5  
     e( 21 - 21) =     19.79294  eV     1   --> A_1g X_1  M_1  
     e( 22 - 22) =     22.21703  eV     1   --> B_2g X_3  M_3  
     e( 23 - 24) =     24.04508  eV     2   --> E_u  X_5' M_5' 
     e( 25 - 25) =     25.27290  eV     1   --> A_2u X_4' M_4' 
     e( 26 - 26) =     25.33914  eV     1   --> A_1g X_1  M_1  
     e( 27 - 28) =     25.67616  eV     2   --> E_g  X_5  M_5  
     e( 29 - 29) =     26.08951  eV     1   --> B_1u X_2' M_2' 
     e( 30 - 31) =     26.20781  eV     2   --> E_u  X_5' M_5' 
     e( 32 - 32) =     26.66620  eV     1   --> B_2g X_3  M_3  

 **************************************************************************
 
     BANDS        :  1m10.66s CPU     1m16.46s WALL

 
   This run was terminated on:  10:14:51   7May2019            

=------------------------------------------------------------------------------=
   JOB DONE.
=------------------------------------------------------------------------------=
