<?xml version="1.0" encoding="UTF-8"?>
<UPF version="2.0.1">
  <PP_INFO><![CDATA[
Generated using "atomic" code by A. Dal Corso  v.6.3MaX
Author: ADC
Generation date: 10Oct2018
Pseudopotential type: USPP
Element: Sr
Functional: PBE
    Suggested minimum cutoff for wavefunctions:  39. Ry
    Suggested minimum cutoff for charge density: 262. Ry
    The Pseudo was generated with a Scalar-Relativistic Calculation
    Local Potential by smoothing AE potential with Bessel fncs, cutoff radius:   1.9000
    Pseudopotential contains additional information for GIPAW reconstruction.
    Valence configuration:
    nl pn  l   occ       Rcut    Rcut US       E pseu
    4S  1  0  2.00      1.300      1.500    -3.006062
    5S  2  0  2.00      1.300      1.500    -0.259150
    4P  2  1  6.00      1.400      1.600    -1.677355
    5P  3  1  0.00      1.400      1.600    -0.094393
    Generation configuration:
    4S  1  0  2.00      1.300      1.500    -3.006099
    5S  2  0  2.00      1.300      1.500    -0.259158
    4P  2  1  6.00      1.400      1.600    -1.677382
    5P  3  1  0.00      1.400      1.600    -0.094397
    4D  3  2  0.00      1.200      1.700     0.050000
    4D  3  2  0.00      1.200      1.700     1.000000
    Pseudization used: troullier-martins
]]>
    <PP_INPUTFILE><![CDATA[
 &input
   title='Sr',
   zed=38.,
   rel=1,
   config='[Kr] 5s2 5p0 4d-1',
   iswitch=3,
   dft='PBE'
 /
 &inputp
   lpaw=.false.,
   pseudotype=3,
   file_pseudopw='Sr.pbe-spn-rrkjus_psl.1.0.0.UPF',
   author='ADC',
   lloc=-1,
   rcloc=1.9,
   which_augfun='PSQ',
   rmatch_augfun_nc=.true.,
   nlcc=.true.,
   new_core_ps=.true.,
   rcore=1.2,
   tm=.true.
 /
6
4S  1  0  2.00  0.00  1.30  1.50  0.0
5S  2  0  2.00  0.00  1.30  1.50  0.0
4P  2  1  6.00  0.00  1.40  1.60  0.0
5P  3  1  0.00  0.00  1.40  1.60  0.0
4D  3  2  0.00  0.05  1.20  1.70  0.0
4D  3  2  0.00  1.00  1.20  1.70  0.0
]]></PP_INPUTFILE>
  </PP_INFO>
  <!--
 END OF HUMAN READABLE SECTION 
-->
  <PP_HEADER generated="Generated using &quot;atomic&quot; code by A. Dal Corso  v.6.3MaX" author="ADC" date="10Oct2018" comment="" element="Sr" pseudo_type="USPP" relativistic="scalar" is_ultrasoft="true" is_paw="false" is_coulomb="false" has_so="false" has_wfc="false" has_gipaw="true" paw_as_gipaw="false" core_correction="true" functional="PBE" z_valence="1.000000000000e1" total_psenergy="-7.008056502265e1" wfc_cutoff="3.916263574448e1" rho_cutoff="2.624853181099e2" l_max="2" l_max_rho="4" l_local="-1" mesh_size="1221" number_of_wfc="4" number_of_proj="6"/>
  <PP_MESH dx="1.250000000000e-2" mesh="1221" xmin="-7.000000000000e0" rmax="1.000000000000e2" zmesh="3.800000000000e1">
    <PP_R>
      2.399689383038201e-5 2.429873759655321e-5 2.460437808991006e-5 2.491386306740142e-5
      2.522724088668473e-5 2.554456051368181e-5 2.586587153022997e-5 2.619122414182924e-5
      2.652066918548712e-5 2.685425813766196e-5 2.719204312230624e-5 2.753407691901102e-5
      2.788041297125290e-5 2.823110539474465e-5 2.858620898589100e-5 2.894577923035048e-5
      2.930987231170535e-5 2.967854512024033e-5 3.005185526183177e-5 3.042986106694889e-5
      3.081262159976774e-5 3.120019666740033e-5 3.159264682923950e-5 3.199003340642144e-5
      3.239241849140739e-5 3.279986495768552e-5 3.321243646959513e-5 3.363019749227432e-5
      3.405321330173284e-5 3.448154999505158e-5 3.491527450071030e-5 3.535445458904545e-5
      3.579915888283931e-5 3.624945686804256e-5 3.670541890463154e-5 3.716711623760215e-5
      3.763462100810195e-5 3.810800626470252e-5 3.858734597481324e-5 3.907271503623913e-5
      3.956418928888349e-5 4.006184552659820e-5 4.056576150918291e-5 4.107601597453506e-5
      4.159268865095307e-5 4.211586026959379e-5 4.264561257708702e-5 4.318202834830858e-5
      4.372519139931405e-5 4.427518660043530e-5 4.483209988954143e-5 4.539601828546690e-5
      4.596702990160841e-5 4.654522395969265e-5 4.713069080371763e-5 4.772352191406882e-5
      4.832380992181334e-5 4.893164862317371e-5 4.954713299418361e-5 5.017035920552834e-5
      5.080142463757130e-5 5.144042789557019e-5 5.208746882508412e-5 5.274264852757470e-5
      5.340606937620352e-5 5.407783503182787e-5 5.475805045919814e-5 5.544682194335878e-5
      5.614425710625547e-5 5.685046492355143e-5 5.756555574165487e-5 5.828964129496097e-5
      5.902283472331061e-5 5.976525058966860e-5 6.051700489802464e-5 6.127821511151879e-5
      6.204900017079561e-5 6.282948051258877e-5 6.361977808853957e-5 6.442001638425219e-5
      6.523032043858839e-5 6.605081686320523e-5 6.688163386233837e-5 6.772290125283423e-5
      6.857475048443416e-5 6.943731466031373e-5 7.031072855788029e-5 7.119512864983228e-5
      7.209065312548338e-5 7.299744191235496e-5 7.391563669803980e-5 7.484538095234125e-5
      7.578681994969061e-5 7.674010079184653e-5 7.770537243088018e-5 7.868278569244898e-5
      7.967249329936356e-5 8.067464989545112e-5 8.168941206971866e-5 8.271693838082051e-5
      8.375738938183334e-5 8.481092764534280e-5 8.587771778884600e-5 8.695792650047320e-5
      8.805172256503347e-5 8.915927689038714e-5 9.028076253415090e-5 9.141635473073826e-5
      9.256623091874022e-5 9.373057076865077e-5 9.490955621094027e-5 9.610337146448272e-5
      9.731220306534031e-5 9.853623989591002e-5 9.977567321443704e-5 1.010306966848991e-4
      1.023015064072666e-4 1.035883009481443e-4 1.048912813717971e-4 1.062106512715673e-4
      1.075466168016860e-4 1.088993867094852e-4 1.102691723680153e-4 1.116561878090721e-4
      1.130606497566405e-4 1.144827776607571e-4 1.159227937318001e-4 1.173809229752106e-4
      1.188573932266491e-4 1.203524351875967e-4 1.218662824614012e-4 1.233991715897792e-4
      1.249513420897757e-4 1.265230364911891e-4 1.281145003744675e-4 1.297259824090803e-4
      1.313577343923741e-4 1.330100112889161e-4 1.346830712703329e-4 1.363771757556506e-4
      1.380925894521417e-4 1.398295803966862e-4 1.415884199976532e-4 1.433693830773086e-4
      1.451727479147571e-4 1.469987962894237e-4 1.488478135250818e-4 1.507200885344364e-4
      1.526159138642669e-4 1.545355857411382e-4 1.564794041176867e-4 1.584476727194884e-4
      1.604406990925168e-4 1.624587946511974e-4 1.645022747270674e-4 1.665714586180460e-4
      1.686666696383259e-4 1.707882351688918e-4 1.729364867086740e-4 1.751117599263467e-4
      1.773143947127754e-4 1.795447352341270e-4 1.818031299856456e-4 1.840899318461055e-4
      1.864054981329507e-4 1.887501906581237e-4 1.911243757846024e-4 1.935284244836431e-4
      1.959627123927458e-4 1.984276198743494e-4 2.009235320752621e-4 2.034508389868440e-4
      2.060099355059414e-4 2.086012214965919e-4 2.112251018525042e-4 2.138819865603213e-4
      2.165722907636850e-4 2.192964348281003e-4 2.220548444066193e-4 2.248479505063512e-4
      2.276761895558062e-4 2.305400034730902e-4 2.334398397349542e-4 2.363761514467136e-4
      2.393493974130480e-4 2.423600422096879e-4 2.454085562560086e-4 2.484954158885319e-4
      2.516211034353554e-4 2.547861072915182e-4 2.579909219953113e-4 2.612360483055529e-4
      2.645219932798312e-4 2.678492703537334e-4 2.712183994210724e-4 2.746299069151185e-4
      2.780843258908593e-4 2.815821961082876e-4 2.851240641167408e-4 2.887104833403023e-4
      2.923420141642712e-4 2.960192240227280e-4 2.997426874871941e-4 3.035129863564111e-4
      3.073307097472488e-4 3.111964541867531e-4 3.151108237053585e-4 3.190744299312657e-4
      3.230878921860115e-4 3.271518375812393e-4 3.312669011166842e-4 3.354337257793966e-4
      3.396529626442071e-4 3.439252709754600e-4 3.482513183300248e-4 3.526317806616007e-4
      3.570673424263403e-4 3.615586966897932e-4 3.661065452352005e-4 3.707115986731509e-4
      3.753745765526120e-4 3.800962074733652e-4 3.848772291998480e-4 3.897183887764315e-4
      3.946204426441505e-4 3.995841567588934e-4 4.046103067110903e-4 4.096996778468971e-4
      4.148530653909075e-4 4.200712745704111e-4 4.253551207412072e-4 4.307054295150113e-4
      4.361230368884541e-4 4.416087893737094e-4 4.471635441307653e-4 4.527881691013522e-4
      4.584835431445662e-4 4.642505561741885e-4 4.700901092977377e-4 4.760031149572713e-4
      4.819904970719521e-4 4.880531911824180e-4 4.941921445969582e-4 5.004083165395330e-4
      5.067026782996560e-4 5.130762133841578e-4 5.195299176708628e-4 5.260647995641954e-4
      5.326818801527472e-4 5.393821933688225e-4 5.461667861499932e-4 5.530367186026849e-4
      5.599930641678204e-4 5.670369097885466e-4 5.741693560800730e-4 5.813915175016432e-4
      5.887045225306737e-4 5.961095138390782e-4 6.036076484718139e-4 6.112000980276730e-4
      6.188880488423449e-4 6.266727021737863e-4 6.345552743899177e-4 6.425369971586852e-4
      6.506191176405104e-4 6.588028986831618e-4 6.670896190190774e-4 6.754805734651693e-4
      6.839770731251408e-4 6.925804455943505e-4 7.012920351672496e-4 7.101132030474338e-4
      7.190453275603306e-4 7.280898043685678e-4 7.372480466900479e-4 7.465214855187657e-4
      7.559115698484062e-4 7.654197668987493e-4 7.750475623449287e-4 7.847964605495713e-4
      7.946679847978554e-4 8.046636775355289e-4 8.147851006099183e-4 8.250338355139707e-4
      8.354114836333672e-4 8.459196664967388e-4 8.565600260290378e-4 8.673342248080887e-4
      8.782439463243705e-4 8.892908952440672e-4 9.004767976754218e-4 9.118034014384479e-4
      9.232724763380274e-4 9.348858144404463e-4 9.466452303534123e-4 9.585525615095852e-4
      9.706096684536847e-4 9.828184351332006e-4 9.951807691927653e-4 1.007698602272228e-3
      1.020373890308474e-3 1.033208613841048e-3 1.046204778321614e-3 1.059364414427312e-3
      1.072689578378059e-3 1.086182352257830e-3 1.099844844339998e-3 1.113679189416745e-3
      1.127687549132637e-3 1.141872112322378e-3 1.156235095352827e-3 1.170778742469303e-3
      1.185505326146258e-3 1.200417147442353e-3 1.215516536360003e-3 1.230805852209447e-3
      1.246287483977393e-3 1.261963850700302e-3 1.277837401842368e-3 1.293910617678252e-3
      1.310186009680630e-3 1.326666120912615e-3 1.343353526425116e-3 1.360250833659195e-3
      1.377360682853484e-3 1.394685747456732e-3 1.412228734545530e-3 1.429992385247303e-3
      1.447979475168612e-3 1.466192814828853e-3 1.484635250099404e-3 1.503309662648297e-3
      1.522218970390487e-3 1.541366127943778e-3 1.560754127090493e-3 1.580385997244946e-3
      1.600264805926789e-3 1.620393659240322e-3 1.640775702359828e-3 1.661414120021010e-3
      1.682312137018620e-3 1.703473018710330e-3 1.724900071526957e-3 1.746596643489096e-3
      1.768566124730257e-3 1.790811948026584e-3 1.813337589333226e-3 1.836146568327465e-3
      1.859242448958674e-3 1.882628840005190e-3 1.906309395638196e-3 1.930287815992688e-3
      1.954567847745629e-3 1.979153284701379e-3 2.004047968384482e-3 2.029255788639914e-3
      2.054780684240873e-3 2.080626643504228e-3 2.106797704913699e-3 2.133297957750874e-3
      2.160131542734179e-3 2.187302652665857e-3 2.214815533087116e-3 2.242674482941497e-3
      2.270883855246592e-3 2.299448057774220e-3 2.328371553739140e-3 2.357658862496439e-3
      2.387314560247699e-3 2.417343280756024e-3 2.447749716070092e-3 2.478538617257281e-3
      2.509714795146044e-3 2.541283121077602e-3 2.573248527667106e-3 2.605616009574376e-3
      2.638390624284309e-3 2.671577492897134e-3 2.705181800928591e-3 2.739208799120175e-3
      2.773663804259588e-3 2.808552200011479e-3 2.843879437758666e-3 2.879651037453921e-3
      2.915872588482473e-3 2.952549750535361e-3 2.989688254493783e-3 3.027293903324537e-3
      3.065372572986764e-3 3.103930213350068e-3 3.142972849124201e-3 3.182506580800439e-3
      3.222537585604788e-3 3.263072118463191e-3 3.304116512978877e-3 3.345677182421989e-3
      3.387760620731690e-3 3.430373403530834e-3 3.473522189153428e-3 3.517213719685013e-3
      3.561454822016124e-3 3.606252408909012e-3 3.651613480077771e-3 3.697545123282058e-3
      3.744054515434570e-3 3.791148923722454e-3 3.838835706742827e-3 3.887122315652549e-3
      3.936016295332503e-3 3.985525285566491e-3 4.035657022234959e-3 4.086419338523764e-3
      4.137820166148096e-3 4.189867536591851e-3 4.242569582362549e-3 4.295934538262064e-3
      4.349970742673331e-3 4.404686638863225e-3 4.460090776301848e-3 4.516191811998390e-3
      4.572998511853820e-3 4.630519752030565e-3 4.688764520339434e-3 4.747741917643971e-3
      4.807461159282495e-3 4.867931576508006e-3 4.929162617946238e-3 4.991163851071983e-3
      5.053944963704059e-3 5.117515765519044e-3 5.181886189584054e-3 5.247066293908819e-3
      5.313066263017250e-3 5.379896409538793e-3 5.447567175819811e-3 5.516089135555204e-3
      5.585472995440607e-3 5.655729596845280e-3 5.726869917506132e-3 5.798905073242999e-3
      5.871846319695521e-3 5.945705054081865e-3 6.020492816979539e-3 6.096221294128656e-3
      6.172902318257838e-3 6.250547870933110e-3 6.329170084430058e-3 6.408781243629496e-3
      6.489393787937016e-3 6.571020313226676e-3 6.653673573809117e-3 6.737366484424476e-3
      6.822112122260306e-3 6.907923728994931e-3 6.994814712866493e-3 7.082798650767996e-3
      7.171889290368755e-3 7.262100552262453e-3 7.353446532142300e-3 7.445941503003501e-3
      7.539599917373424e-3 7.634436409569878e-3 7.730465797987708e-3 7.827703087414228e-3
      7.926163471373746e-3 8.025862334501561e-3 8.126815254947893e-3 8.229038006811946e-3
      8.332546562606668e-3 8.437357095754496e-3 8.543485983114467e-3 8.650949807541163e-3
      8.759765360475779e-3 8.869949644569854e-3 8.981519876341945e-3 9.094493488867750e-3
      9.208888134504090e-3 9.324721687647074e-3 9.442012247525046e-3 9.560778141026617e-3
      9.681037925564272e-3 9.802810391974026e-3 9.926114567451503e-3 1.005096971852498e-2
      1.017739535406583e-2 1.030541122833682e-2 1.043503734407876e-2 1.056629395563597e-2
      1.069920157212104e-2 1.083378096061944e-2 1.097005314943443e-2 1.110803943137278e-2
      1.124776136707176e-2 1.138924078836809e-2 1.153249980170920e-2 1.167756079160736e-2
      1.182444642413741e-2 1.197317965047826e-2 1.212378371049911e-2 1.227628213639075e-2
      1.243069875634249e-2 1.258705769826537e-2 1.274538339356218e-2 1.290570058094490e-2
      1.306803431030026e-2 1.323240994660371e-2 1.339885317388287e-2 1.356738999923064e-2
      1.373804675686885e-2 1.391085011226310e-2 1.408582706628922e-2 1.426300495945230e-2
      1.444241147615859e-2 1.462407464904136e-2 1.480802286334095e-2 1.499428486134008e-2
      1.518288974685491e-2 1.537386698978253e-2 1.556724643070567e-2 1.576305828555542e-2
      1.596133315033246e-2 1.616210200588784e-2 1.636539622276370e-2 1.657124756609501e-2
      1.677968820057299e-2 1.699075069547084e-2 1.720446802973283e-2 1.742087359712722e-2
      1.764000121146420e-2 1.786188511187934e-2 1.808655996818348e-2 1.831406088628006e-2
      1.854442341365036e-2 1.877768354490797e-2 1.901387772742297e-2 1.925304286701689e-2
      1.949521633372942e-2 1.974043596765742e-2 1.998874008486760e-2 2.024016748338345e-2
      2.049475744924750e-2 2.075254976265992e-2 2.101358470419414e-2 2.127790306109087e-2
      2.154554613363112e-2 2.181655574158948e-2 2.209097423076862e-2 2.236884447961575e-2
      2.265020990592259e-2 2.293511447360943e-2 2.322360269959462e-2 2.351571966075042e-2
      2.381151100094631e-2 2.411102293818100e-2 2.441430227180404e-2 2.472139638982831e-2
      2.503235327633458e-2 2.534722151896900e-2 2.566605031653508e-2 2.598888948668111e-2
      2.631578947368421e-2 2.664680135633249e-2 2.698197685590604e-2 2.732136834425857e-2
      2.766502885200065e-2 2.801301207678577e-2 2.836537239170083e-2 2.872216485376189e-2
      2.908344521251705e-2 2.944926991875740e-2 2.981969613333754e-2 3.019478173610717e-2
      3.057458533495483e-2 3.095916627496555e-2 3.134858464769366e-2 3.174290130055212e-2
      3.214217784632027e-2 3.254647667277066e-2 3.295586095241751e-2 3.337039465238738e-2
      3.379014254441425e-2 3.421517021496030e-2 3.464554407546374e-2 3.508133137271588e-2
      3.552260019936853e-2 3.596941950457358e-2 3.642185910475662e-2 3.687998969452563e-2
      3.734388285771732e-2 3.781361107858225e-2 3.828924775311055e-2 3.877086720050041e-2
      3.925854467477028e-2 3.975235637651772e-2 4.025237946482579e-2 4.075869206931929e-2
      4.127137330237288e-2 4.179050327147221e-2 4.231616309173115e-2 4.284843489856608e-2
      4.338740186052969e-2 4.393314819230640e-2 4.448575916787084e-2 4.504532113381225e-2
      4.561192152282622e-2 4.618564886737627e-2 4.676659281352733e-2 4.735484413495287e-2
      4.795049474711869e-2 4.855363772164476e-2 4.916436730084795e-2 4.978277891246764e-2
      5.040896918457623e-2 5.104303596067776e-2 5.168507831499602e-2 5.233519656795505e-2
      5.299349230185467e-2 5.366006837674252e-2 5.433502894648652e-2 5.501847947504888e-2
      5.571052675296513e-2 5.641127891403052e-2 5.712084545219587e-2 5.783933723867639e-2
      5.856686653927551e-2 5.930354703192654e-2 6.004949382445536e-2 6.080482347256591e-2
      6.156965399805242e-2 6.234410490724057e-2 6.312829720966047e-2 6.392235343695496e-2
      6.472639766202502e-2 6.554055551841664e-2 6.636495421995131e-2 6.719972258060334e-2
      6.804499103462756e-2 6.890089165693952e-2 6.976755818375285e-2 7.064512603347559e-2
      7.153373232786961e-2 7.243351591347650e-2 7.334461738331188e-2 7.426717909883419e-2
      7.520134521218857e-2 7.614726168873055e-2 7.710507632983433e-2 7.807493879598601e-2
      7.905700063016927e-2 8.005141528154383e-2 8.105833812942187e-2 8.207792650754724e-2
      8.311033972867815e-2 8.415573910948090e-2 8.521428799573588e-2 8.628615178785981e-2
      8.737149796675135e-2 8.847049611995869e-2 8.958331796817943e-2 9.071013739209150e-2
      9.185113045952214e-2 9.300647545295982e-2 9.417635289741002e-2 9.536094558860370e-2
      9.656043862155911e-2 9.777501941950273e-2 9.900487776315565e-2 1.002502058203858e-1
      1.015111981762361e-1 1.027880518633278e-1 1.040809663926468e-1 1.053901437847192e-1
      1.067157886011757e-1 1.080581079767161e-1 1.094173116514740e-1 1.107936120037884e-1
      1.121872240833901e-1 1.135983656450012e-1 1.150272571823620e-1 1.164741219626826e-1
      1.179391860615280e-1 1.194226783981449e-1 1.209248307712287e-1 1.224458778951439e-1
      1.239860574365985e-1 1.255456100517790e-1 1.271247794239548e-1 1.287238123015528e-1
      1.303429585367135e-1 1.319824711243306e-1 1.336426062415811e-1 1.353236232879550e-1
      1.370257849257855e-1 1.387493571212918e-1 1.404946091861363e-1 1.422618138195044e-1
      1.440512471507159e-1 1.458631887823691e-1 1.476979218340304e-1 1.495557329864723e-1
      1.514369125264666e-1 1.533417543921442e-1 1.552705562189215e-1 1.572236193860085e-1
      1.592012490634987e-1 1.612037542600523e-1 1.632314478711808e-1 1.652846467281359e-1
      1.673636716474165e-1 1.694688474808964e-1 1.716005031665819e-1 1.737589717800114e-1
      1.759445905862966e-1 1.781577010928230e-1 1.803986491026101e-1 1.826677847683430e-1
      1.849654626470869e-1 1.872920417556841e-1 1.896478856268543e-1 1.920333623659957e-1
      1.944488447087013e-1 1.968947100790023e-1 1.993713406483381e-1 2.018791233952744e-1
      2.044184501659678e-1 2.069897177353919e-1 2.095933278693363e-1 2.122296873871809e-1
      2.148992082254644e-1 2.176023075022493e-1 2.203394075822965e-1 2.231109361430627e-1
      2.259173262415236e-1 2.287590163818422e-1 2.316364505838846e-1 2.345500784525983e-1
      2.375003552482666e-1 2.404877419576402e-1 2.435127053659708e-1 2.465757181299457e-1
      2.496772588515402e-1 2.528178121528029e-1 2.559978687515760e-1 2.592179255381732e-1
      2.624784856530191e-1 2.657800585652645e-1 2.691231601523950e-1 2.725083127808341e-1
      2.759360453875677e-1 2.794068935627898e-1 2.829213996335882e-1 2.864801127486882e-1
      2.900835889642527e-1 2.937323913307727e-1 2.974270899810418e-1 3.011682622192400e-1
      3.049564926111421e-1 3.087923730754530e-1 3.126765029762999e-1 3.166094892168826e-1
      3.205919463343019e-1 3.246244965955860e-1 3.287077700949161e-1 3.328424048520848e-1
      3.370290469121853e-1 3.412683504465561e-1 3.455609778550008e-1 3.499075998692839e-1
      3.543088956579397e-1 3.587655529323885e-1 3.632782680543972e-1 3.678477461448855e-1
      3.724747011941002e-1 3.771598561731829e-1 3.819039431471296e-1 3.867077033891826e-1
      3.915718874966539e-1 3.964972555082051e-1 4.014845770226100e-1 4.065346313190007e-1
      4.116482074786361e-1 4.168261045081955e-1 4.220691314646230e-1 4.273781075815489e-1
      4.327538623972911e-1 4.381972358844775e-1 4.437090785812908e-1 4.492902517243648e-1
      4.549416273833596e-1 4.606640885972181e-1 4.664585295121485e-1 4.723258555213331e-1
      4.782669834063965e-1 4.842828414806598e-1 4.903743697341846e-1 4.965425199806549e-1
      5.027882560060966e-1 5.091125537194689e-1 5.155164013051584e-1 5.220007993773772e-1
      5.285667611365175e-1 5.352153125274639e-1 5.419474923998957e-1 5.487643526706167e-1
      5.556669584879113e-1 5.626563883979827e-1 5.697337345134756e-1 5.769001026841178e-1
      5.841566126695175e-1 5.915043983141217e-1 5.989446077243876e-1 6.064784034481737e-1
      6.141069626563874e-1 6.218314773269276e-1 6.296531544309251e-1 6.375732161213415e-1
      6.455928999239308e-1 6.537134589306013e-1 6.619361619952210e-1 6.702622939318710e-1
      6.786931557156070e-1 6.872300646857367e-1 6.958743547516527e-1 7.046273766012673e-1
      7.134904979120503e-1 7.224651035647395e-1 7.315525958597288e-1 7.407543947361751e-1
      7.500719379938769e-1 7.595066815179220e-1 7.690600995061827e-1 7.787336846996574e-1
      7.885289486157112e-1 7.984474217842621e-1 8.084906539869193e-1 8.186602144991490e-1
      8.289576923354728e-1 8.393846964977500e-1 8.499428562265980e-1 8.606338212559519e-1
      8.714592620708503e-1 8.824208701684464e-1 8.935203583223041e-1 9.047594608500324e-1
      9.161399338842644e-1 9.276635556470668e-1 9.393321267277871e-1 9.511474703643930e-1
      9.631114327283694e-1 9.752258832131735e-1 9.874927147263421e-1 9.999138439852580e-1
      1.012491211816635e0 1.025226783459790e0 1.038122548873699e0 1.051180523047946e0
      1.064402746317564e0 1.077791284681837e0 1.091348230127127e0 1.105075700953737e0
      1.118975842106915e0 1.133050825511999e0 1.147302850413777e0 1.161734143720139e0
      1.176346960350023e0 1.191143583585757e0 1.206126325429829e0 1.221297526966131e0
      1.236659558725772e0 1.252214821057466e0 1.267965744502600e0 1.283914790175012e0
      1.300064450145531e0 1.316417247831390e0 1.332975738390491e0 1.349742509120677e0
      1.366720179863987e0 1.383911403416012e0 1.401318865940413e0 1.418945287388620e0
      1.436793421924848e0 1.454866058356434e0 1.473166020569583e0 1.491696167970628e0
      1.510459395932796e0 1.529458636248631e0 1.548696857588091e0 1.568177065962394e0
      1.587902305193738e0 1.607875657390878e0 1.628100243430734e0 1.648579223446024e0
      1.669315797319035e0 1.690313205181630e0 1.711574727921500e0 1.733103687694834e0
      1.754903448445400e0 1.776977416430162e0 1.799329040751532e0 1.821961813896280e0
      1.844879272281259e0 1.868084996805972e0 1.891582613412081e0 1.915375793649993e0
      1.939468255252522e0 1.963863762715813e0 1.988566127887544e0 2.013579210562523e0
      2.038906919085815e0 2.064553210963399e0 2.090522093480562e0 2.116817624328034e0
      2.143443912236004e0 2.170405117616135e0 2.197705453211613e0 2.225349184755421e0
      2.253340631636859e0 2.281684167576445e0 2.310384221309340e0 2.339445277277324e0
      2.368871876329521e0 2.398668616431907e0 2.428840153385734e0 2.459391201555046e0
      2.490326534603267e0 2.521650986239128e0 2.553369450971933e0 2.585486884876318e0
      2.618008306366683e0 2.650938796981293e0 2.684283502176308e0 2.718047632129759e0
      2.752236462555638e0 2.786855335528264e0 2.821909660316962e0 2.857404914231305e0
      2.893346643476937e0 2.929740464022167e0 2.966592062475509e0 3.003907196974185e0
      3.041691698083886e0 3.079951469709787e0 3.118692490019035e0 3.157920812374883e0
      3.197642566282499e0 3.237863958346751e0 3.278591273241986e0 3.319830874694004e0
      3.361589206474448e0 3.403872793407604e0 3.446688242389963e0 3.490042243422544e0
      3.533941570656198e0 3.578393083450135e0 3.623403727443650e0 3.668980535641452e0
      3.715130629512553e0 3.761861220103000e0 3.809179609162662e0 3.857093190286084e0
      3.905609450067805e0 3.954735969272131e0 4.004480424017622e0 4.054850586976550e0
      4.105854328589345e0 4.157499618294406e0 4.209794525773334e0 4.262747222211798e0
      4.316365981576368e0 4.370659181907266e0 4.425635306627512e0 4.481302945868451e0
      4.537670797811956e0 4.594747670049591e0 4.652542480958749e0 4.711064261096229e0
      4.770322154609246e0 4.830325420664210e0 4.891083434893535e0 4.952605690860540e0
      5.014901801542894e0 5.077981500834647e0 5.141854645067130e0 5.206531214549099e0
      5.272021315126101e0 5.338335179759603e0 5.405483170125878e0 5.473475778235017e0
      5.542323628070388e0 5.612037477248580e0 5.682628218700371e0 5.754106882372741e0
      5.826484636952294e0 5.899772791610455e0 5.973982797770477e0 6.049126250896812e0
      6.125214892306903e0 6.202260611005753e0 6.280275445543681e0 6.359271585897283e0
      6.439261375374221e0 6.520257312541851e0 6.602272053180121e0 6.685318412259138e0
      6.769409365941446e0 6.854558053609653e0 6.940777779919454e0 7.028082016878478e0
      7.116484405951394e0 7.205998760191330e0 7.296639066398263e0 7.388419487304462e0
      7.481354363787393e0 7.575458217110615e0 7.670745751192636e0 7.767231854904534e0
      7.864931604396331e0 7.963860265452627e0 8.064033295878016e0 8.165466347912274e0
      8.268175270676164e0 8.372176112647844e0 8.477485124170435e0 8.584118759991272e0
      8.692093681832866e0 8.801426760996449e0 8.912135080998093e0 9.024235940238009e0
      9.137746854703556e0 9.252685560706022e0 9.369070017652081e0 9.486918410849940e0
      9.606249154350760e0 9.727080893826033e0 9.849432509480847e0 9.973323119004093e0
      1.009877208055559e1 1.022579899579076e1 1.035442371292359e1 1.048466632982779e1
      1.061654719717724e1 1.075008692162580e1 1.088530636902707e1 1.102222666769485e1
      1.116086921170433e1 1.130125566423510e1 1.144340796095602e1 1.158734831345260e1
      1.173309921269783e1 1.188068343256620e1 1.203012403339234e1 1.218144436557420e1
      1.233466807322150e1 1.248981909785034e1 1.264692168212393e1 1.280600037364072e1
      1.296708002876992e1 1.313018581653532e1 1.329534322254815e1 1.346257805298906e1
      1.363191643864058e1 1.380338483897001e1 1.397701004626372e1 1.415281918981362e1
      1.433083974015604e1 1.451109951336418e1 1.469362667539437e1 1.487844974648698e1
      1.506559760562294e1 1.525509949503596e1 1.544698502478181e1 1.564128417736495e1
      1.583802731242322e1 1.603724517147179e1 1.623896888270641e1 1.644322996586739e1
      1.665006033716458e1 1.685949231426424e1 1.707155862133892e1 1.728629239418052e1
      1.750372718537794e1 1.772389696955972e1 1.794683614870251e1 1.817257955750669e1
      1.840116246883910e1 1.863262059924472e1 1.886699011452737e1 1.910430763540056e1
      1.934461024320984e1 1.958793548572650e1 1.983432138301477e1 2.008380643337242e1
      2.033642961934605e1 2.059223041382254e1 2.085124878619637e1 2.111352520861524e1
      2.137910066230379e1 2.164801664396691e1 2.192031517227392e1 2.219603879442378e1
      2.247523059279346e1 2.275793419166952e1 2.304419376406437e1 2.333405403861867e1
      2.362756030658996e1 2.392475842892980e1 2.422569484344950e1 2.453041657207601e1
      2.483897122819947e1 2.515140702411257e1 2.546777277854412e1 2.578811792428696e1
      2.611249251592175e1 2.644094723763847e1 2.677353341115556e1 2.711030300373931e1
      2.745130863632379e1 2.779660359173277e1 2.814624182300564e1 2.850027796182727e1
      2.885876732706470e1 2.922176593341066e1 2.958933050013581e1 2.996151845995161e1
      3.033838796798391e1 3.071999791086014e1 3.110640791591031e1 3.149767836048378e1
      3.189387038138364e1 3.229504588441912e1 3.270126755407884e1 3.311259886332518e1
      3.352910408351195e1 3.395084829442732e1 3.437789739446218e1 3.481031811090730e1
      3.524817801037946e1 3.569154550937864e1 3.614048988497875e1 3.659508128565171e1
      3.705539074222883e1 3.752149017899927e1 3.799345242494817e1 3.847135122513683e1
      3.895526125222491e1 3.944525811813874e1 3.994141838588561e1 4.044381958151664e1
      4.095254020624095e1 4.146765974869100e1 4.198925869734340e1 4.251741855309514e1
      4.305222184199809e1 4.359375212815435e1 4.414209402677272e1 4.469733321739059e1
      4.525955645726117e1 4.582885159490940e1 4.640530758385894e1 4.698901449653071e1
      4.758006353831745e1 4.817854706183454e1 4.878455858134997e1 4.939819278739677e1
      5.001954556156791e1 5.064871399149862e1 5.128579638603618e1 5.193089229060075e1
      5.258410250274003e1 5.324552908787846e1 5.391527539526574e1 5.459344607412509e1
      5.528014709000468e1 5.597548574133549e1 5.667957067619632e1 5.739251190929078e1
      5.811442083913713e1 5.884541026547421e1 5.958559440688728e1 6.033508891865417e1
      6.109401091081729e1 6.186247896648204e1 6.264061316034542e1 6.342853507745851e1
      6.422636783222370e1 6.503423608763224e1 6.585226607474278e1 6.668058561240485e1
      6.751932412723168e1 6.836861267382239e1 6.922858395524043e1 7.009937234374822e1
      7.098111390180289e1 7.187394640331705e1 7.277800935518527e1 7.369344401908325e1
      7.462039343353982e1 7.555900243628662e1 7.650941768689022e1 7.747178768966686e1
      7.844626281688758e1 7.943299533227377e1 8.043213941478815e1 8.144385118272670e1
      8.246828871811120e1 8.350561209139094e1 8.455598338645363e1 8.561956672595075e1
      8.669652829694332e1 8.778703637686759e1 8.889126135982986e1 9.000937578323045e1
      9.114155435472249e1 9.228797397951157e1 9.344881378799611e1 9.462425516375813e1
      9.581448177190417e1 9.701967958776301e1 9.824003692594566e1 9.947574446976873e1
      1.007269953010502e2
      </PP_R>
    <PP_RAB>
      2.999611728797751e-7 3.037342199569152e-7 3.075547261238758e-7 3.114232883425178e-7
      3.153405110835592e-7 3.193070064210227e-7 3.233233941278746e-7 3.273903017728656e-7